# vtk DataFile Version 3.0
Configuration exported from OpenDiS
ASCII
DATASET UNSTRUCTURED_GRID
POINTS 45384 FLOAT
-29412.000000 -29412.000000 -29412.000000
29412.000000 -29412.000000 -29412.000000
-29412.000000 29412.000000 -29412.000000
-29412.000000 -29412.000000 29412.000000
29412.000000 29412.000000 -29412.000000
29412.000000 -29412.000000 29412.000000
-29412.000000 29412.000000 29412.000000
29412.000000 29412.000000 29412.000000
-21572.055124 25091.487454 -8493.124535
-20596.413136 24249.296098 -8626.575167
-21572.055124 25091.487454 -8493.124535
-22045.658178 25580.419186 -8508.453213
-9708.081347 20616.913207 17461.596468
-8635.470056 21084.589113 16856.661083
-9708.081347 20616.913207 17461.596468
-10522.486227 20086.951601 17746.039749
20293.657720 9363.115686 25059.859964
20293.657720 8609.289430 24309.671623
20293.657720 9363.115686 25059.859964
20293.657720 10044.225395 25731.750609
-5225.530850 -323.192239 -5944.984978
-4408.660266 -1546.185985 -6351.108140
-5225.530850 -323.192239 -5944.984978
-6294.445587 938.503113 -5752.204362
-14972.269427 1691.703187 28604.124423
-15711.136447 845.452199 28711.508392
-14972.269427 1691.703187 28604.124423
-13987.038703 2419.954524 28861.103810
23290.171585 -28831.022425 21589.359693
22709.194005 -29412.000005 21589.359693
22709.194005 29411.999983 21589.359693
22578.999545 29281.805535 21589.359693
23290.171585 -28831.022425 21589.359693
24030.424749 -28090.769261 21589.359693
-24554.907314 11221.982445 22098.300346
-24554.907314 12147.573424 22988.576346
-24554.907314 11221.982445 22098.300346
-24554.907314 10540.866436 21436.739403
27286.505346 27888.903251 -4044.853291
27778.465887 28504.347928 -2937.448073
27286.505346 27888.903251 -4044.853291
27094.026248 27631.226902 -4495.008738
9481.122848 7608.853016 -28928.804508
8670.683210 8418.424734 -28928.804508
9481.122848 7608.853016 -28928.804508
9815.066879 7284.751248 -28928.804508
17295.726321 -195.974622 6061.697190
17285.666837 -1113.165722 5154.565575
17295.726321 -195.974622 6061.697190
17347.518772 1184.315213 7390.194574
-14474.654481 21617.800743 5154.113574
-14408.188543 22373.377901 4331.996752
-14474.654481 21617.800743 5154.113574
-14554.485971 20886.919591 5964.899942
10299.232162 14412.986356 8655.214754
10380.649434 13892.114828 9257.503553
10299.232162 14412.986356 8655.214754
10304.482147 15158.090330 7915.360764
-14660.993827 27641.711690 3250.602913
-14183.370768 26689.183708 2775.697989
-14660.993827 27641.711690 3250.602913
-15232.879989 28723.347835 3760.352896
25926.578632 -16828.379823 -22013.257820
25926.578632 -17099.130888 -22285.809170
25926.578632 -16828.379823 -22013.257820
25926.578632 -16415.527573 -21602.205855
20597.150799 10512.656786 -13315.990377
19808.548477 10512.656786 -14058.517216
20597.150799 10512.656786 -13315.990377
21549.869655 10512.656786 -12514.357695
-26413.325583 -21549.295390 5430.895443
-26413.325583 -21458.270127 5361.221186
-26413.325583 -21549.295390 5430.895443
-26890.849347 -21944.382656 6303.506473
-26413.325583 -21549.295390 5430.895443
-26133.711861 -21516.011049 5184.566061
20538.731200 27773.468549 29052.488764
20945.809927 27716.736277 28702.142309
20538.731200 27773.468549 29052.488764
20300.349252 27203.415685 28244.053952
20538.731200 27773.468549 29052.488764
19464.831538 29008.016248 29213.136801
13386.382430 15634.450751 -581.868942
13386.382430 16389.728146 -1337.146337
13386.382430 15634.450751 -581.868942
13387.302255 14768.407412 285.094222
19031.272516 7885.317372 15850.719727
19859.416801 7831.388511 16624.936666
19031.272516 7885.317372 15850.719727
18082.996834 8229.946805 15247.073010
5893.562366 -15436.937317 26792.612638
6914.468381 -16038.297408 26373.066714
5893.562366 -15436.937317 26792.612638
5116.030098 -14773.376249 26906.583838
-26721.660742 28227.993006 21873.991304
-27443.432071 28171.683319 21095.910289
-26721.660742 28227.993006 21873.991304
-25923.058474 28171.287460 22615.888025
17413.641229 -16193.281241 15071.914485
16500.897529 -14801.981428 14593.358370
17413.641229 -16193.281241 15071.914485
18738.938190 -17518.578205 15071.914485
17413.641229 -16193.281241 15071.914485
17738.809230 -15176.240723 16414.123007
13015.354376 26185.531936 -25466.937654
13864.479281 26627.089050 -24176.175583
13015.354376 26185.531936 -25466.937654
12756.247906 25726.166675 -26185.409385
20464.054281 11505.446904 25784.690362
20148.304540 10790.487283 26183.900242
20464.054281 11505.446904 25784.690362
21015.654178 12813.409716 25028.327446
11464.077389 -28112.022282 7949.124347
11943.284692 -28774.127073 7766.226859
11464.077389 -28112.022282 7949.124347
10681.766337 -27044.708554 8234.127023
21088.681256 -24632.959669 -21385.168011
20897.648180 -23496.155209 -20439.396627
21088.681256 -24632.959669 -21385.168011
20806.505986 -24257.078494 -21478.873915
21088.681256 -24632.959669 -21385.168011
21095.027890 -25232.353090 -21978.214797
21088.681256 -24632.959669 -21385.168011
21558.480071 -25028.253555 -21459.672940
-7472.856320 -23142.930094 18540.542411
-7400.273021 -23184.291506 18509.320523
-7472.856320 -23142.930094 18540.542411
-8017.493327 -22193.285286 18135.534610
-7472.856320 -23142.930094 18540.542411
-7203.060767 -23264.366326 18931.774196
27241.561640 20056.711643 -6370.568356
27241.594162 19346.781818 -5660.119865
27241.561640 20056.711643 -6370.568356
27241.545420 20818.857158 -7132.972671
-26426.372942 -11417.909927 3432.505418
-25756.826867 -10883.911736 3568.053301
-26426.372942 -11417.909927 3432.505418
-26945.599616 -11417.909927 2913.278744
-26426.372942 -11417.909927 3432.505418
-26070.640107 -10899.693191 4306.454989
24876.124463 -14022.407957 7062.069492
24913.441804 -15116.603713 5930.556396
24876.124463 -14022.407957 7062.069492
25280.579783 -13442.992071 7237.030059
24876.124463 -14022.407957 7062.069492
23589.052469 -14436.471586 7935.078394
2191.772925 -28799.993910 -28139.203954
1101.450233 -28061.523123 -28491.055858
2191.772925 -28799.993910 -28139.203954
2848.212314 -29412.000004 -28094.770658
2848.212314 29411.999985 -28094.770658
3225.863810 29059.911104 -28069.208054
21787.900297 12339.848928 -16272.650200
21471.928963 12969.079114 -15327.550401
21787.900297 12339.848928 -16272.650200
22237.530747 11872.541039 -17189.537678
-1916.388422 14212.424853 -21930.894330
-2299.051073 14009.604197 -22036.773335
-1916.388422 14212.424853 -21930.894330
-1021.801648 13815.748744 -21432.983663
-3741.940965 -23761.702646 -13652.069484
-3904.137931 -23458.936794 -13511.597512
-3741.940965 -23761.702646 -13652.069484
-3723.191264 -23767.275753 -13638.896531
-3741.940965 -23761.702646 -13652.069484
-4208.297057 -23238.545488 -14641.582735
28677.867234 11541.205565 3580.758706
29411.999996 11367.080195 4489.016838
-29411.999993 11367.080195 4489.016838
-29175.074542 11310.885000 4782.137495
28677.867234 11541.205565 3580.758706
27962.693844 11990.450005 2416.340876
-13280.645264 11197.811237 -22846.621940
-14686.019961 12602.267403 -22846.621940
-13280.645264 11197.811237 -22846.621940
-12684.778816 10434.095357 -22678.772508
-13280.645264 11197.811237 -22846.621940
-14360.296859 10658.937063 -23387.399362
327.144016 3946.016684 9150.096280
-380.215007 3238.657661 9150.096280
327.144016 3946.016684 9150.096280
1091.350206 4710.222874 9150.096280
18931.888508 25500.699368 -28080.771537
19420.769516 24420.978510 -28671.611388
18931.888508 25500.699368 -28080.771537
18803.367179 26266.976582 -27443.015652
-4368.008533 3544.362279 21327.464104
-3642.303970 4138.882710 20007.239110
-4368.008533 3544.362279 21327.464104
-4691.567807 3087.930966 22107.454687
6180.393049 29370.754811 -10421.392816
6059.820729 29411.999999 -10583.210323
6059.820729 -29411.999989 -10583.210323
5595.735950 -29253.246615 -11206.048489
6180.393049 29370.754811 -10421.392816
7109.805288 28946.011575 -9067.237341
-8989.694973 -3945.171452 -25912.985930
-8292.871193 -4576.107161 -25978.874000
-8989.694973 -3945.171452 -25912.985930
-9808.002933 -3169.063081 -25870.786340
-11721.685866 -4044.802621 26403.563240
-11262.498098 -3262.621011 26726.557082
-11721.685866 -4044.802621 26403.563240
-12412.505157 -4700.174381 26439.010771
17986.477603 -27272.786388 26438.625806
18992.697818 -27715.655222 27001.977189
17986.477603 -27272.786388 26438.625806
17908.395037 -27272.786388 26360.543241
17986.477603 -27272.786388 26438.625806
18035.728332 -27177.986268 26393.076415
22398.421059 21385.025716 430.381618
22075.846552 21702.727305 430.381618
22398.421059 21385.025716 430.381618
22968.616685 20809.720020 430.381618
9998.140461 1453.589208 25303.284169
10766.394887 740.442910 25358.392297
9998.140461 1453.589208 25303.284169
9229.886034 2166.735507 25248.176041
-18684.802121 -8005.304864 -12157.751273
-19156.528109 -8005.304864 -11686.025213
-18684.802121 -8005.304864 -12157.751273
-17938.724985 -8005.304864 -12903.828522
7754.415112 -25601.691523 20837.217020
8531.453035 -25594.914184 21585.250603
7754.415112 -25601.691523 20837.217020
7736.265206 -25605.104564 20844.707154
6608.957414 15921.663625 14129.512296
7165.390023 16339.330478 13155.412835
6608.957414 15921.663625 14129.512296
6060.490878 15191.848002 15407.794455
-4087.231619 -19361.464051 25645.189380
-3676.111989 -20045.202049 25372.571012
-4087.231619 -19361.464051 25645.189380
-4711.322633 -18294.074508 26088.487909
4718.872750 -6126.762964 12848.236412
4718.872750 -5728.227642 13317.569029
4718.872750 -6126.762964 12848.236412
4718.872750 -6938.932913 11956.344477
1157.435953 -13610.045589 28530.891257
596.699944 -13395.815630 28184.385208
1157.435953 -13610.045589 28530.891257
1806.373601 -13672.714807 29117.159687
28067.663602 -66.358210 6526.980905
27628.383890 468.928288 6622.987690
28067.663602 -66.358210 6526.980905
28669.775600 -1086.085786 6109.365327
-22149.391841 276.171739 17691.068913
-22646.001808 377.011198 17295.298405
-22149.391841 276.171739 17691.068913
-21212.577172 -64.713289 18286.998584
5019.615411 22679.156007 10834.683711
5795.227368 23454.866106 10834.684429
[...]
CELL_DATA 22689
VECTORS Burgers FLOAT
0.000000 0.000000 0.000000
0.000000 0.707107 -0.707107
-0.000000 -0.707107 0.707107
-0.707107 -0.000000 0.707107
0.707107 0.000000 -0.707107
0.000000 -0.707107 0.707107
0.000000 0.707107 -0.707107
-0.000000 0.707107 0.707107
0.000000 -0.707107 -0.707107
-0.707107 0.000000 -0.707107
0.707107 -0.000000 0.707107
-0.707107 0.707107 -0.000000
-0.707107 0.707107 -0.000000
0.707107 -0.707107 0.000000
0.000000 0.707107 -0.707107
-0.000000 -0.707107 0.707107
0.000000 0.707107 0.707107
-0.000000 -0.707107 -0.707107
0.707107 0.707107 0.000000
-0.707107 -0.707107 -0.000000
0.707107 -0.000000 -0.707107
-0.707107 0.000000 0.707107
-0.707107 0.707107 0.000000
0.707107 -0.707107 -0.000000
-0.707107 -0.000000 -0.707107
0.707107 0.000000 0.707107
-0.707107 0.707107 0.000000
0.707107 -0.707107 -0.000000
0.000000 0.707107 -0.707107
-0.000000 -0.707107 0.707107
0.707107 0.000000 -0.707107
-0.707107 -0.000000 0.707107
0.000000 1.414214 0.000000
0.000000 -0.707107 0.707107
0.000000 -0.707107 -0.707107
-0.707107 0.707107 0.000000
0.707107 0.000000 0.707107
-0.000000 -0.707107 -0.707107
0.000000 0.707107 0.707107
-0.000000 -0.707107 -0.707107
0.000000 -0.707107 -0.707107
-0.000000 0.707107 0.707107
0.707107 0.000000 -0.707107
-0.707107 -0.000000 0.707107
-0.707107 0.000000 -0.707107
0.707107 -0.000000 0.707107
-0.707107 0.000000 0.707107
0.707107 0.707107 0.000000
-0.000000 -0.707107 -0.707107
-0.707107 0.707107 0.000000
0.707107 -0.707107 -0.000000
-0.000000 0.707107 -0.707107
0.000000 -0.707107 0.707107
-0.707107 0.707107 0.000000
0.707107 -0.707107 -0.000000
-0.000000 -0.707107 -0.707107
0.000000 -0.707107 0.707107
0.000000 0.707107 0.707107
-0.000000 0.707107 -0.707107
-0.707107 0.000000 0.707107
0.707107 -0.707107 -0.000000
0.000000 0.707107 -0.707107
0.000000 -0.707107 -0.707107
-0.000000 0.707107 0.707107
-0.707107 -0.707107 0.000000
0.000000 0.707107 -0.707107
0.707107 0.000000 0.707107
-0.707107 -0.000000 0.707107
0.000000 -0.707107 -0.707107
0.707107 0.707107 -0.000000
-0.707107 0.000000 -0.707107
0.707107 -0.000000 0.707107
0.707107 -0.000000 0.707107
0.707107 0.707107 0.000000
-0.707107 -0.707107 -0.000000
-0.000000 -0.707107 -0.707107
0.000000 0.707107 0.707107
0.000000 -0.707107 -0.707107
-0.707107 0.707107 0.000000
0.707107 0.000000 0.707107
-0.707107 -0.000000 -0.707107
-0.707107 -0.000000 -0.707107
0.707107 0.000000 0.707107
-0.707107 -0.707107 -0.000000
0.000000 0.707107 -0.707107
0.707107 -0.000000 0.707107
0.707107 -0.707107 0.000000
-0.707107 0.707107 -0.000000
-0.707107 -0.000000 -0.707107
0.707107 0.000000 0.707107
0.707107 -0.000000 -0.707107
-0.707107 0.000000 0.707107
-0.707107 -0.707107 0.000000
-0.707107 -0.707107 0.000000
0.707107 0.707107 -0.000000
0.000000 0.707107 -0.707107
-0.000000 -0.707107 0.707107
-0.000000 -0.707107 -0.707107
0.000000 0.707107 0.707107
-0.707107 -0.000000 -0.707107
0.707107 0.707107 0.000000
-0.000000 -0.707107 0.707107
0.000000 -1.414214 0.000000
-0.000000 1.414214 -0.000000
-0.000000 0.707107 0.707107
0.000000 -0.707107 -0.707107
0.707107 0.000000 0.707107
-0.707107 -0.000000 -0.707107
-0.707107 0.000000 -0.707107
0.707107 -0.000000 0.707107
-0.000000 -0.707107 0.707107
0.000000 0.707107 -0.707107
-0.707107 0.707107 -0.000000
0.707107 -0.707107 0.000000
-0.000000 -0.000000 -1.414214
0.000000 0.000000 1.414214
-0.000000 0.707107 0.707107
-0.000000 -0.707107 -0.707107
0.707107 -0.707107 0.000000
-0.707107 0.707107 -0.000000
-0.707107 -0.000000 -0.707107
0.707107 0.000000 0.707107
0.707107 -0.707107 0.000000
-0.707107 0.707107 -0.000000
-0.707107 -0.000000 -0.707107
-0.707107 -0.000000 -0.707107
0.707107 0.000000 0.707107
-0.000000 -0.707107 0.707107
-0.000000 0.707107 0.707107
0.000000 0.000000 -1.414214
0.000000 -0.707107 -0.707107
-0.000000 0.707107 0.707107
-0.707107 -0.707107 0.000000
0.707107 0.707107 -0.000000
0.000000 0.707107 0.707107
-0.000000 -0.707107 -0.707107
-0.707107 0.000000 0.707107
0.707107 -0.000000 -0.707107
-0.707107 -0.707107 0.000000
0.707107 0.707107 -0.000000
0.000000 0.707107 -0.707107
-0.000000 -0.707107 0.707107
0.000000 0.707107 0.707107
-0.000000 -0.707107 -0.707107
-0.707107 -0.707107 0.000000
0.707107 0.707107 0.000000
0.707107 0.707107 0.000000
0.707107 0.000000 0.707107
-0.707107 -0.000000 -0.707107
-0.707107 -0.000000 -0.707107
0.707107 0.000000 0.707107
0.707107 0.707107 0.000000
-0.707107 -0.707107 -0.000000
0.707107 0.000000 0.707107
-0.707107 -0.000000 -0.707107
0.707107 -0.000000 0.707107
-0.707107 0.000000 -0.707107
0.707107 -0.707107 0.000000
-0.707107 0.707107 -0.000000
0.000000 -0.707107 -0.707107
-0.000000 0.707107 0.707107
0.707107 -0.000000 -0.707107
-0.707107 0.000000 0.707107
-0.000000 0.707107 0.707107
0.000000 -0.707107 -0.707107
0.000000 0.707107 -0.707107
-0.000000 -0.707107 0.707107
-0.707107 0.707107 -0.000000
0.707107 -0.707107 0.000000
-0.707107 0.707107 0.000000
0.707107 -0.707107 -0.000000
-0.707107 -0.707107 0.000000
0.707107 0.707107 -0.000000
-0.707107 -0.707107 -0.000000
0.707107 0.707107 0.000000
-0.707107 0.000000 -0.707107
-0.000000 0.707107 0.707107
0.707107 -0.707107 0.000000
0.707107 -0.000000 -0.707107
-0.707107 -0.000000 0.707107
-0.707107 -0.707107 -0.000000
0.707107 0.707107 0.000000
0.707107 0.707107 0.000000
-0.707107 -0.707107 -0.000000
0.707107 -0.707107 0.000000
-0.707107 0.707107 -0.000000
-0.000000 -0.707107 -0.707107
0.000000 0.707107 0.707107
0.000000 0.707107 0.707107
-0.000000 -0.707107 -0.707107
-0.707107 -0.000000 0.707107
0.707107 0.000000 -0.707107
0.000000 -0.707107 0.707107
-0.000000 0.707107 -0.707107
0.707107 -0.000000 -0.707107
-0.707107 0.000000 0.707107
-0.707107 0.000000 -0.707107
0.707107 -0.000000 0.707107
0.707107 -0.000000 0.707107
0.707107 -0.000000 0.707107
-0.707107 0.000000 -0.707107
0.000000 -0.707107 0.707107
-0.000000 0.707107 -0.707107
0.707107 -0.000000 0.707107
-0.707107 -0.707107 -0.000000
-0.000000 0.707107 -0.707107
-0.707107 0.000000 0.707107
0.707107 -0.000000 -0.707107
-0.707107 0.000000 0.707107
0.707107 -0.000000 -0.707107
0.000000 0.707107 -0.707107
-0.000000 -0.707107 0.707107
0.000000 -0.707107 -0.707107
-0.000000 -0.000000 1.414214
0.000000 0.707107 -0.707107
0.000000 0.707107 -0.707107
-0.000000 0.707107 -0.707107
0.000000 -0.707107 0.707107
0.000000 -0.707107 -0.707107
0.000000 -0.707107 -0.707107
-0.000000 0.707107 0.707107
0.707107 0.000000 -0.707107
-0.707107 -0.000000 0.707107
-0.000000 -0.707107 0.707107
0.707107 0.707107 0.000000
-0.707107 0.000000 -0.707107
0.000000 -0.707107 -0.707107
-0.000000 0.707107 0.707107
0.000000 0.707107 -0.707107
-0.000000 -0.707107 0.707107
0.707107 0.000000 0.707107
-0.707107 -0.707107 -0.000000
0.000000 0.707107 -0.707107
0.000000 0.707107 -0.707107
0.707107 0.000000 0.707107
-0.707107 -0.707107 -0.000000
0.000000 -0.707107 -0.707107
-0.000000 0.707107 0.707107
0.707107 0.707107 -0.000000
-0.707107 0.000000 0.707107
0.000000 -0.707107 -0.707107
-0.707107 -0.000000 -0.707107
0.707107 -0.000000 0.707107
0.707107 -0.707107 0.000000
-0.707107 0.707107 -0.000000
-0.000000 -0.707107 0.707107
0.707107 -0.000000 -0.707107
-0.707107 0.707107 0.000000
-0.707107 -0.000000 -0.707107
0.707107 0.000000 0.707107
-0.707107 0.707107 0.000000
0.707107 -0.707107 -0.000000
0.707107 0.000000 -0.707107
-0.707107 -0.000000 0.707107
-0.000000 -0.707107 0.707107
-0.000000 -0.000000 -1.414214
0.000000 0.707107 0.707107
-0.707107 0.000000 0.707107
0.707107 -0.000000 -0.707107
0.707107 0.000000 0.707107
-0.707107 -0.000000 -0.707107
-0.707107 0.000000 -0.707107
0.707107 -0.000000 0.707107
-0.707107 -0.707107 0.000000
0.707107 0.707107 0.000000
0.707107 0.707107 0.000000
-0.707107 -0.707107 -0.000000
-0.707107 -0.707107 -0.000000
-0.707107 0.000000 0.707107
0.707107 -0.000000 -0.707107
-0.000000 -0.707107 -0.707107
0.000000 0.707107 0.707107
0.707107 0.707107 0.000000
-0.707107 -0.707107 -0.000000
-0.000000 0.707107 -0.707107
0.000000 -0.707107 0.707107
0.707107 0.000000 0.707107
-0.707107 0.000000 -0.707107
0.707107 0.707107 0.000000
-0.707107 -0.707107 -0.000000
0.000000 -0.707107 -0.707107
-0.000000 0.707107 0.707107
-0.707107 -0.000000 -0.707107
0.707107 0.000000 0.707107
-0.000000 0.707107 0.707107
0.000000 -0.707107 -0.707107
0.707107 -0.707107 -0.000000
-0.707107 0.707107 -0.000000
0.707107 0.000000 -0.707107
-0.707107 -0.000000 0.707107
0.707107 0.707107 0.000000
-0.707107 -0.707107 -0.000000
0.000000 0.707107 0.707107
0.000000 0.707107 0.707107
0.707107 -0.000000 -0.707107
-0.707107 -0.707107 0.000000
0.000000 0.707107 0.707107
-0.000000 -0.707107 -0.707107
-0.707107 0.000000 0.707107
0.707107 -0.000000 -0.707107
-0.000000 -0.707107 0.707107
0.707107 0.000000 -0.707107
-0.707107 0.707107 -0.000000
-0.000000 0.707107 0.707107
0.000000 -0.707107 -0.707107
0.707107 0.000000 -0.707107
-0.707107 0.000000 0.707107
-0.707107 0.000000 0.707107
0.707107 0.707107 0.000000
-0.707107 -0.707107 -0.000000
-0.000000 0.707107 -0.707107
0.000000 -0.707107 0.707107
0.000000 0.707107 -0.707107
-0.000000 -0.707107 0.707107
0.707107 0.000000 -0.707107
-0.000000 0.707107 0.707107
-0.707107 -0.707107 0.000000
-0.707107 0.000000 -0.707107
0.707107 -0.000000 0.707107
0.707107 -0.000000 0.707107
0.707107 -0.000000 0.707107
-0.707107 0.000000 -0.707107
0.707107 0.000000 0.707107
-0.707107 -0.000000 -0.707107
-0.000000 0.707107 0.707107
0.000000 -0.707107 -0.707107
0.707107 0.000000 -0.707107
0.000000 -0.707107 -0.707107
-1.414214 0.707107 0.707107
0.707107 -0.000000 0.707107
0.000000 0.707107 0.707107
-0.000000 -0.707107 -0.707107
0.707107 -0.707107 -0.000000
-0.707107 0.707107 0.000000
0.000000 -0.707107 0.707107
-0.000000 0.707107 -0.707107
-0.707107 0.000000 -0.707107
0.707107 -0.000000 0.707107
0.000000 -0.707107 -0.707107
-0.000000 0.707107 0.707107
0.707107 -0.000000 -0.707107
-0.707107 0.000000 0.707107
0.707107 -0.000000 0.707107
-0.707107 0.000000 -0.707107
0.000000 -0.707107 -0.707107
-0.000000 0.707107 0.707107
-0.707107 0.000000 0.707107
0.707107 -0.000000 -0.707107
-0.707107 0.707107 0.000000
-0.000000 -0.707107 -0.707107
0.707107 -0.000000 0.707107
0.000000 -0.707107 0.707107
-0.000000 0.707107 -0.707107
-0.000000 0.707107 -0.707107
0.707107 -0.000000 0.707107
-0.707107 -0.707107 0.000000
0.000000 0.707107 0.707107
-0.000000 -0.707107 -0.707107
0.000000 0.707107 0.707107
-0.000000 -0.707107 -0.707107
-0.707107 -0.707107 -0.000000
0.707107 0.707107 0.000000
0.000000 -0.707107 0.707107
-0.707107 0.707107 0.000000
0.707107 -0.000000 -0.707107
-0.707107 -0.707107 -0.000000
0.707107 0.707107 0.000000
-0.707107 0.707107 -0.000000
0.707107 -0.707107 0.000000
0.000000 -0.707107 -0.707107
-0.000000 0.707107 0.707107
-0.707107 -0.707107 -0.000000
0.707107 0.707107 0.000000
0.000000 -0.707107 0.707107
-0.000000 0.707107 -0.707107
0.000000 0.707107 0.707107
-0.000000 -0.707107 -0.707107
-0.707107 0.000000 0.707107
0.707107 -0.000000 -0.707107
0.000000 0.707107 -0.707107
-0.000000 -0.707107 0.707107
-0.000000 0.707107 0.707107
0.000000 -0.707107 -0.707107
0.000000 -0.707107 -0.707107
0.707107 0.000000 0.707107
-0.707107 0.707107 -0.000000
-0.707107 -0.000000 -0.707107
0.707107 0.000000 0.707107
-0.707107 0.000000 0.707107
0.707107 -0.000000 -0.707107
0.707107 -0.000000 -0.707107
-0.707107 0.000000 0.707107
0.707107 0.000000 0.707107
-0.707107 -0.000000 -0.707107
-0.707107 -0.000000 -0.707107
0.707107 -0.707107 0.000000
-0.707107 0.707107 0.000000
0.707107 -0.000000 0.707107
-0.707107 0.000000 -0.707107
0.000000 -0.707107 0.707107
0.707107 -0.000000 -0.707107
-0.707107 0.707107 -0.000000
1.414214 0.000000 0.000000
-1.414214 -0.000000 -0.000000
0.000000 0.707107 0.707107
-0.000000 -0.707107 -0.707107
0.000000 0.707107 -0.707107
-0.000000 -0.707107 0.707107
-0.000000 -0.707107 -0.707107
0.707107 -0.000000 0.707107
0.000000 0.707107 -0.707107
-0.707107 0.000000 0.707107
0.707107 0.707107 -0.000000
-0.707107 -0.707107 0.000000
0.000000 -0.707107 0.707107
-0.000000 0.707107 -0.707107
-0.707107 0.000000 0.707107
0.707107 -0.000000 -0.707107
0.707107 0.000000 0.707107
-0.707107 -0.000000 -0.707107
-0.707107 0.000000 -0.707107
0.707107 -0.000000 0.707107
-0.707107 -0.000000 -0.707107
0.707107 0.000000 0.707107
0.000000 -0.707107 0.707107
-0.000000 0.707107 -0.707107
-0.000000 0.707107 0.707107
0.000000 -0.707107 0.707107
-0.000000 0.707107 -0.707107
-0.000000 0.707107 0.707107
0.000000 -0.707107 -0.707107
-0.707107 -0.707107 -0.000000
0.707107 0.707107 0.000000
0.707107 0.707107 -0.000000
-0.707107 -0.707107 0.000000
-0.707107 0.707107 0.000000
0.707107 -0.707107 -0.000000
-0.707107 0.000000 0.707107
0.707107 -0.000000 -0.707107
-0.707107 0.707107 0.000000
0.707107 -0.707107 0.000000
-0.000000 0.707107 0.707107
0.000000 -0.707107 -0.707107
-0.707107 -0.000000 0.707107
0.707107 -0.000000 -0.707107
0.000000 -0.707107 -0.707107
-0.000000 0.707107 0.707107
0.000000 0.707107 0.707107
-0.000000 -0.707107 -0.707107
0.707107 -0.000000 0.707107
-0.707107 0.000000 -0.707107
0.707107 0.000000 -0.707107
0.707107 -0.000000 0.707107
-0.707107 0.000000 -0.707107
-0.707107 -0.707107 0.000000
0.707107 0.707107 -0.000000
0.000000 0.707107 -0.707107
-0.000000 -0.707107 0.707107
-0.707107 -0.707107 -0.000000
0.707107 0.707107 0.000000
0.707107 -0.000000 0.707107
-0.707107 0.707107 -0.000000
-0.707107 0.707107 -0.000000
0.000000 -0.707107 -0.707107
0.000000 0.707107 -0.707107
-0.000000 -0.707107 0.707107
-0.707107 -0.707107 0.000000
0.707107 -0.000000 0.707107
-0.000000 0.707107 -0.707107
-0.707107 0.000000 0.707107
0.707107 -0.000000 -0.707107
-0.707107 0.000000 -0.707107
0.000000 0.000000 1.414214
0.707107 -0.000000 -0.707107
0.000000 -0.707107 -0.707107
-0.000000 0.707107 0.707107
-0.707107 0.707107 0.000000
0.707107 -0.707107 -0.000000
-0.707107 0.000000 -0.707107
0.707107 0.707107 0.000000
-0.000000 -0.707107 0.707107
0.000000 0.707107 0.707107
0.707107 0.000000 0.707107
-0.707107 -0.000000 -0.707107
0.707107 -0.707107 0.000000
-0.707107 0.707107 -0.000000
-0.707107 0.000000 0.707107
0.707107 -0.000000 -0.707107
-0.000000 -0.707107 -0.707107
0.000000 0.707107 0.707107
0.707107 -0.707107 -0.000000
-0.707107 0.707107 0.000000
-0.707107 0.707107 0.000000
-0.000000 -0.707107 0.707107
0.707107 0.000000 -0.707107
-0.707107 0.707107 0.000000
0.707107 -0.707107 -0.000000
-0.707107 -0.000000 -0.707107
-0.707107 -0.000000 -0.707107
0.707107 0.000000 0.707107
-0.707107 0.000000 -0.707107
0.000000 -0.707107 0.707107
0.707107 0.707107 0.000000
-0.000000 0.707107 -0.707107
0.000000 -0.707107 0.707107
0.000000 -0.707107 -0.707107
-0.000000 0.707107 0.707107
0.707107 -0.707107 -0.000000
-0.707107 0.707107 -0.000000
0.000000 0.707107 0.707107
-0.000000 -0.707107 -0.707107
-0.707107 0.707107 0.000000
-0.707107 0.707107 0.000000
0.000000 -0.707107 -0.707107
0.707107 0.000000 0.707107
0.000000 0.707107 -0.707107
-0.000000 -0.707107 0.707107
0.000000 -0.707107 -0.707107
0.707107 0.000000 0.707107
-0.707107 0.707107 -0.000000
-0.000000 -0.707107 0.707107
0.000000 0.707107 -0.707107
0.707107 -0.707107 0.000000
-0.707107 0.707107 -0.000000
-0.707107 -0.000000 -0.707107
0.707107 0.000000 0.707107
0.707107 0.000000 -0.707107
-0.707107 -0.000000 0.707107
0.000000 0.707107 -0.707107
-0.000000 -0.707107 0.707107
0.707107 -0.707107 0.000000
-0.707107 0.707107 -0.000000
-0.000000 -0.707107 0.707107
0.000000 0.707107 -0.707107
0.707107 0.707107 0.000000
-0.707107 -0.707107 -0.000000
0.707107 -0.707107 0.000000
-0.707107 0.707107 -0.000000
0.707107 -0.707107 0.000000
-0.707107 0.707107 -0.000000
0.000000 0.707107 -0.707107
0.000000 -0.707107 0.707107
-0.707107 -0.000000 -0.707107
0.707107 0.000000 0.707107
0.707107 -0.707107 0.000000
-0.707107 0.707107 -0.000000
-0.000000 0.707107 0.707107
0.000000 -0.707107 -0.707107
0.707107 -0.000000 -0.707107
-0.707107 0.000000 0.707107
-0.707107 0.000000 0.707107
-0.707107 0.000000 -0.707107
0.707107 -0.707107 0.000000
0.000000 0.707107 0.707107
0.707107 -0.000000 -0.707107
-0.707107 0.000000 0.707107
-0.707107 0.000000 -0.707107
0.707107 -0.000000 0.707107
0.000000 -0.707107 -0.707107
-0.000000 0.707107 0.707107
0.707107 -0.707107 0.000000
-0.707107 0.707107 -0.000000
-0.707107 0.000000 -0.707107
0.707107 -0.000000 0.707107
0.000000 0.707107 -0.707107
-0.707107 -0.707107 0.000000
0.707107 0.000000 0.707107
0.707107 0.707107 -0.000000
-0.707107 -0.707107 0.000000
-0.707107 0.000000 0.707107
0.707107 -0.000000 -0.707107
-0.707107 0.000000 -0.707107
0.707107 0.707107 0.000000
0.000000 -0.707107 0.707107
0.000000 0.707107 -0.707107
-0.000000 -0.707107 0.707107
-0.000000 -0.707107 0.707107
0.707107 0.000000 -0.707107
-0.707107 -0.000000 0.707107
0.000000 0.707107 0.707107
-0.000000 -0.707107 -0.707107
0.707107 0.707107 0.000000
-0.707107 -0.707107 0.000000
0.707107 0.000000 -0.707107
-0.707107 -0.000000 0.707107
0.000000 0.707107 -0.707107
-0.000000 -0.707107 0.707107
-0.707107 0.000000 -0.707107
0.707107 0.000000 0.707107
0.707107 0.707107 -0.000000
-0.707107 -0.707107 0.000000
-0.000000 -0.707107 0.707107
0.000000 0.707107 -0.707107
-0.000000 -0.707107 -0.707107
0.000000 0.707107 0.707107
0.000000 0.707107 -0.707107
-0.000000 -0.707107 0.707107
0.000000 -0.707107 -0.707107
-0.000000 0.707107 0.707107
-0.707107 -0.707107 0.000000
0.707107 0.707107 -0.000000
-0.707107 0.000000 0.707107
-0.000000 0.707107 -0.707107
0.707107 -0.707107 -0.000000
0.000000 -0.707107 0.707107
0.000000 -0.707107 0.707107
-0.000000 0.707107 -0.707107
0.000000 0.707107 0.707107
0.000000 -0.707107 -0.707107
0.000000 0.707107 -0.707107
-0.000000 -0.707107 0.707107
0.000000 0.707107 0.707107
-0.707107 0.000000 -0.707107
0.707107 -0.707107 -0.000000
0.707107 -0.707107 0.000000
0.000000 0.707107 0.707107
-0.707107 -0.000000 -0.707107
0.000000 0.707107 0.707107
-0.000000 -0.707107 -0.707107
-0.707107 0.000000 0.707107
0.707107 -0.000000 -0.707107
-0.707107 0.707107 0.000000
0.707107 -0.707107 -0.000000
-0.000000 0.707107 0.707107
-0.707107 0.000000 0.707107
0.000000 -0.707107 -0.707107
0.707107 -0.000000 -0.707107
-0.707107 0.707107 -0.000000
0.707107 -0.000000 0.707107
0.000000 -0.707107 -0.707107
0.707107 0.707107 -0.000000
-0.707107 -0.707107 0.000000
0.707107 -0.000000 -0.707107
-0.707107 0.000000 0.707107
-0.000000 0.707107 0.707107
-0.707107 -0.707107 0.000000
0.707107 -0.000000 -0.707107
0.707107 -0.707107 0.000000
-0.707107 0.707107 -0.000000
-0.000000 -0.707107 -0.707107
0.000000 0.707107 0.707107
0.000000 0.707107 0.707107
-0.707107 -0.000000 0.707107
0.707107 0.000000 -0.707107
0.707107 0.000000 -0.707107
-0.707107 -0.000000 0.707107
0.707107 0.000000 -0.707107
-0.707107 -0.000000 0.707107
0.707107 -0.707107 0.000000
-0.707107 0.707107 -0.000000
-0.707107 -0.000000 -0.707107
0.707107 0.000000 0.707107
-0.707107 0.000000 0.707107
0.707107 -0.000000 -0.707107
0.000000 0.707107 0.707107
-0.000000 -0.707107 -0.707107
-0.707107 -0.707107 0.000000
0.707107 0.707107 0.000000
-0.707107 -0.707107 -0.000000
0.707107 0.000000 -0.707107
-0.707107 -0.000000 0.707107
0.000000 0.707107 0.707107
-0.000000 -0.707107 -0.707107
0.000000 -0.707107 0.707107
-0.000000 0.707107 -0.707107
-0.000000 0.707107 -0.707107
-0.707107 0.000000 0.707107
0.707107 -0.000000 -0.707107
0.707107 0.707107 0.000000
-0.707107 -0.707107 -0.000000
-0.000000 0.707107 -0.707107
0.000000 -0.707107 0.707107
0.000000 -0.707107 0.707107
0.000000 0.707107 -0.707107
0.707107 -0.000000 0.707107
-0.707107 0.000000 -0.707107
0.707107 0.707107 0.000000
-0.707107 -0.707107 -0.000000
-0.000000 -0.707107 -0.707107
-0.000000 0.707107 0.707107
-0.707107 0.707107 0.000000
0.707107 -0.707107 -0.000000
0.000000 0.707107 -0.707107
0.000000 -0.707107 0.707107
0.707107 0.707107 0.000000
-0.707107 -0.707107 -0.000000
-0.707107 0.000000 0.707107
0.707107 -0.000000 -0.707107
-0.707107 0.000000 -0.707107
0.707107 -0.000000 0.707107
-0.000000 0.707107 -0.707107
0.000000 -0.707107 0.707107
0.000000 0.707107 0.707107
-0.000000 -0.707107 -0.707107
-0.707107 -0.707107 0.000000
0.707107 0.707107 -0.000000
-0.707107 0.000000 -0.707107
-0.707107 0.000000 -0.707107
0.707107 -0.000000 0.707107
0.000000 -0.707107 -0.707107
0.000000 0.707107 0.707107