# vtk DataFile Version 3.0
Configuration exported from OpenDiS
ASCII
DATASET UNSTRUCTURED_GRID
POINTS 25448 FLOAT
-29412.000000 -29412.000000 -29412.000000
29412.000000 -29412.000000 -29412.000000
-29412.000000 29412.000000 -29412.000000
-29412.000000 -29412.000000 29412.000000
29412.000000 29412.000000 -29412.000000
29412.000000 -29412.000000 29412.000000
-29412.000000 29412.000000 29412.000000
29412.000000 29412.000000 29412.000000
-8070.574012 -2979.893917 -17265.669158
-7245.482382 -2997.701334 -16422.770111
-8070.574012 -2979.893917 -17265.669158
-9250.726459 -2991.371564 -18434.343958
-29411.303152 21757.391155 -2124.082082
-28428.434211 21757.391155 -3106.951023
-29411.303152 21757.391155 -2124.082082
-29412.000000 21757.391155 -2123.386441
29411.999988 21757.391155 -2123.386441
28475.723939 21757.391155 -1188.731110
20293.657720 9474.355151 25167.876732
20293.657720 8569.947369 24263.679874
20293.657720 9474.355151 25167.876732
20293.657720 10367.021462 26060.436768
2773.617788 -16269.819522 787.972999
3627.737204 -16110.656487 1482.929379
2773.617788 -16269.819522 787.972999
1563.892692 -16396.633169 -294.938449
28022.831080 -24067.753671 -2034.633620
27438.799911 -24660.324670 -3211.235788
28022.831080 -24067.753671 -2034.633620
28490.321934 -23571.561414 -1070.950509
28803.523586 -24684.215025 19202.890190
27810.574690 -25133.452811 18659.179080
28803.523586 -24684.215025 19202.890190
29411.999997 -24351.288819 19478.440395
-29411.999991 -24351.288819 19478.440395
-28894.612136 -24068.201461 19712.740904
-14444.867075 12159.248150 16400.529483
-15487.179825 12573.861946 17857.456030
-14444.867075 12159.248150 16400.529483
-13944.586227 11737.359418 15478.359905
5944.220966 -15734.092914 -2820.617746
7217.397895 -14455.246645 -2826.287087
5944.220966 -15734.092914 -2820.617746
5485.568604 -16707.128300 -1388.929998
5944.220966 -15734.092914 -2820.617746
5675.510589 -16199.538023 -3017.352477
-2580.732853 -12646.285404 8661.127445
-1686.620135 -12646.285404 7767.014727
-2580.732853 -12646.285404 8661.127445
-3471.066615 -12646.285404 9551.461206
3814.749367 25638.080578 -1013.911413
4677.836387 25638.080578 -1876.998434
3814.749367 25638.080578 -1013.911413
2959.602710 25638.080578 -157.908931
8505.008286 6555.341967 26488.817899
9265.861833 7193.327428 26611.685985
8505.008286 6555.341967 26488.817899
7218.026230 5482.776256 26274.401554
-12207.077029 9478.266826 11481.758114
-11840.279589 8704.013467 10340.707315
-12207.077029 9478.266826 11481.758114
-12553.615237 10041.736449 12391.765945
-11946.101076 4138.726599 9672.839185
-11779.477909 3659.993641 10318.195310
-11946.101076 4138.726599 9672.839185
-12093.770180 4679.315125 8984.581555
-698.177692 -3409.086539 -4503.526119
-1799.490291 -3409.086539 -5604.838718
-698.177692 -3409.086539 -4503.526119
232.882650 -3409.086539 -3572.280391
-23730.002416 -18073.567429 29237.371075
-22912.331050 -17272.337686 29253.812698
-23730.002416 -18073.567429 29237.371075
-24728.325680 -18940.156910 29105.637292
21394.863882 22996.901681 -24415.617918
22353.042346 22996.901681 -25373.796381
21394.863882 22996.901681 -24415.617918
20361.518748 22996.901681 -23382.031242
-17231.334001 19339.952475 -18001.835016
-17231.334001 20161.913134 -17179.860916
-17231.334001 19339.952475 -18001.835016
-17231.334001 18448.725000 -18893.062490
-13784.468502 23053.188584 24744.527842
-12839.696751 21514.330152 24150.441162
-13784.468502 23053.188584 24744.527842
-14405.706742 24083.250380 25153.351399
-27348.343392 -22332.961407 19901.712213
-26320.402514 -21152.550884 20054.181858
-27348.343392 -22332.961407 19901.712213
-28130.888087 -23196.488863 19820.729452
-16172.819745 29171.755809 18831.902124
-15424.947225 29391.369471 18303.643266
-16172.819745 29171.755809 18831.902124
-16982.496399 28967.378503 19437.201471
-15012.212714 18082.506288 22891.133261
-15650.775253 17068.487746 22515.677259
-15012.212714 18082.506288 22891.133261
-14280.557432 19226.623605 23303.595296
4154.205208 6335.560625 -28386.351569
3375.605122 5839.543432 -27111.734290
4154.205208 6335.560625 -28386.351569
4649.275258 6866.139011 -29412.000005
4649.275258 6866.139011 29411.999983
4759.713815 6984.498649 29183.201800
9709.549138 18025.449998 23822.565597
10598.445981 18122.355133 24614.557306
9709.549138 18025.449998 23822.565597
8222.357042 17810.613845 22550.209655
23308.717407 22996.901681 -26329.471442
22353.042346 22996.901681 -25373.796381
23308.717407 22996.901681 -26329.471442
24111.848153 22996.901681 -27132.602189
-17012.756856 28864.042902 -26604.959399
-17685.810731 29283.427186 -26858.628990
-17012.756856 28864.042902 -26604.959399
-17378.955698 28246.883239 -26855.920220
-17012.756856 28864.042902 -26604.959399
-17012.756856 29411.999997 -26057.002304
-17012.756856 -29411.999991 -26057.002304
-17012.756856 -28828.918248 -25473.920549
22874.944717 -11421.514558 -6093.781554
21984.251287 -11421.514558 -6984.474983
22874.944717 -11421.514558 -6093.781554
23761.067951 -11421.514558 -5207.658320
-13683.959745 -16011.759364 1741.608303
-13307.852847 -16981.520461 1147.954105
-13683.959745 -16011.759364 1741.608303
-14138.300885 -15036.479014 2262.547513
14169.696189 10904.221758 4306.543602
14527.679158 10881.680576 3971.101816
14169.696189 10904.221758 4306.543602
13254.996390 11243.539190 4881.925850
14169.696189 10904.221758 4306.543602
14662.625818 12155.042428 5064.434643
-10105.918549 -25621.381067 -4289.972204
-10665.049277 -24255.394814 -3483.116679
-10105.918549 -25621.381067 -4289.972204
-10826.035425 -26170.234744 -5558.942756
-10105.918549 -25621.381067 -4289.972204
-9501.768677 -25962.983357 -4027.424621
13653.123585 -10387.726286 -19789.971362
13339.726419 -11831.909826 -20920.757736
13653.123585 -10387.726286 -19789.971362
13821.434146 -9506.304350 -19076.859986
4718.872750 -6756.121267 12078.404115
4718.872750 -5973.215487 12861.309896
4718.872750 -6756.121267 12078.404115
4718.872750 -7655.267717 11179.257666
3521.026347 -16087.347435 4850.162667
4021.790583 -17224.193125 5486.244122
3521.026347 -16087.347435 4850.162667
3185.812179 -15311.468256 4409.497657
-16788.530965 24262.056682 -15898.418813
-17818.695649 24262.056682 -16928.583497
-16788.530965 24262.056682 -15898.418813
-15904.225616 24262.056682 -15014.113464
10889.821459 -19216.745951 -7339.046780
10413.109536 -18691.212469 -6336.801375
10889.821459 -19216.745951 -7339.046780
11509.404115 -18539.635213 -8635.740175
-6581.960713 19859.320465 -9615.198193
-7413.517386 19027.763792 -9615.198193
-6581.960713 19859.320465 -9615.198193
-5689.790828 20751.490352 -9615.198193
-24931.254850 -13280.238862 -26327.270374
-25741.635082 -12665.603768 -26523.015512
-24931.254850 -13280.238862 -26327.270374
-23958.991439 -13837.455551 -25912.223653
22558.047402 7990.787937 -27430.657552
23445.643418 8878.383954 -27430.657552
22558.047402 7990.787937 -27430.657552
21666.747471 7099.488007 -27430.657552
-27565.374557 25482.540720 -22846.621940
-28444.219731 26361.385894 -22846.621940
-27565.374557 25482.540720 -22846.621940
-26618.713988 24535.880151 -22846.621940
13084.145746 20118.527576 13092.219833
14103.900284 18520.586951 12514.033748
13084.145746 20118.527576 13092.219833
12044.796150 21502.996182 13437.338843
-11436.956019 -9715.223927 -8481.853648
-11522.931184 -11059.717057 -9740.371614
-11436.956019 -9715.223927 -8481.853648
-11444.913272 -8459.830120 -7218.502589
26696.963301 24908.905702 12551.891352
25311.006159 23678.526071 12707.468863
26696.963301 24908.905702 12551.891352
27563.460299 25755.772909 12532.261561
-9496.132039 18564.851736 19263.910677
-9725.667396 19573.019044 20042.542627
-9496.132039 18564.851736 19263.910677
-9242.252413 17452.679405 18405.617972
-18770.075810 -1336.118653 23679.606039
-18059.130771 -1781.361602 24835.794027
-18770.075810 -1336.118653 23679.606039
-19480.377725 -993.586279 22626.771750
-21790.258960 23201.873920 -9654.255669
-20906.398813 22622.394583 -9349.874858
-21790.258960 23201.873920 -9654.255669
-22467.085044 23617.778293 -9915.177380
-12536.277825 -15530.641507 -13197.949423
-12328.363390 -14741.076477 -12616.298827
-12536.277825 -15530.641507 -13197.949423
-12842.540177 -16868.479462 -14229.525026
20775.447541 6208.188076 -27430.657552
21666.747471 7099.488007 -27430.657552
20775.447541 6208.188076 -27430.657552
20044.354441 5477.094976 -27430.657552
-23195.628156 -18377.140935 23676.183356
-22922.645768 -18256.423412 23523.918491
-23195.628156 -18377.140935 23676.183356
-23070.559251 -17758.381535 22932.355050
-23195.628156 -18377.140935 23676.183356
-22129.252415 -18056.483509 24421.901671
14949.238390 8835.458011 1458.237655
14768.072066 7987.100975 791.046942
14949.238390 8835.458011 1458.237655
15216.945199 9779.173174 2134.246008
-6519.688831 -12682.614129 -23329.422570
-6519.688831 -11932.660004 -24079.376695
-6519.688831 -12682.614129 -23329.422570
-6519.688831 -13569.600030 -22442.436669
-17652.438449 8074.020791 -9544.142625
-17218.365930 7334.163945 -10718.071991
-17652.438449 8074.020791 -9544.142625
-18024.421753 8748.795115 -8497.384998
-11734.256314 -4753.702244 -3223.031671
-11651.644627 -5977.210556 -4529.151669
-11734.256314 -4753.702244 -3223.031671
-11771.926081 -3506.511258 -1938.170918
3502.500383 12357.992300 -8735.030213
3671.162436 13274.538182 -9482.914042
3502.500383 12357.992300 -8735.030213
3367.987651 11037.089851 -7548.640495
-2903.741659 -3409.086539 -6709.090086
-1799.490291 -3409.086539 -5604.838718
-2903.741659 -3409.086539 -6709.090086
-3742.205958 -3409.086539 -7546.312963
-11771.926081 -3506.511258 -1938.170918
-11819.068303 -2198.542363 -583.059801
8948.898684 4978.563117 22404.094740
8328.547350 5832.502255 20929.804268
8948.898684 4978.563117 22404.094740
8534.230620 3760.056958 21600.256646
8948.898684 4978.563117 22404.094740
8948.898684 4103.666264 23278.991593
23783.109411 -24630.641878 17321.857660
24521.205343 -24960.846420 16913.966271
23783.109411 -24630.641878 17321.857660
22957.651867 -24139.275186 17655.948512
[...]
CELL_DATA 12721
VECTORS Burgers FLOAT
0.000000 0.000000 0.000000
0.707107 0.707107 0.000000
-0.707107 -0.707107 0.000000
0.707107 -0.000000 0.707107
-0.707107 0.000000 -0.707107
-0.707107 0.000000 -0.707107
0.000000 -0.707107 0.707107
0.000000 0.707107 -0.707107
-0.707107 0.000000 -0.707107
0.707107 0.000000 0.707107
-0.707107 0.707107 -0.000000
0.707107 -0.707107 0.000000
0.707107 0.000000 0.707107
-0.707107 0.000000 -0.707107
-0.707107 0.000000 -0.707107
-0.000000 -0.707107 -0.707107
0.000000 0.707107 0.707107
-0.707107 -0.707107 0.000000
0.707107 0.000000 -0.707107
0.000000 0.707107 0.707107
-0.707107 0.000000 -0.707107
0.707107 0.000000 0.707107
-0.707107 0.000000 -0.707107
0.707107 0.000000 0.707107
-0.707107 -0.000000 -0.707107
0.707107 -0.000000 0.707107
0.000000 0.707107 0.707107
0.000000 -0.707107 -0.707107
-0.707107 0.000000 -0.707107
0.707107 -0.000000 0.707107
0.707107 -0.000000 -0.707107
-0.707107 0.000000 0.707107
-0.707107 -0.707107 0.000000
0.707107 0.707107 -0.000000
-0.707107 0.000000 -0.707107
0.707107 0.000000 0.707107
-0.000000 0.707107 -0.707107
0.000000 -0.707107 0.707107
-0.000000 0.707107 0.707107
0.000000 -0.707107 -0.707107
0.000000 -0.707107 -0.707107
-0.000000 0.707107 0.707107
-0.000000 0.707107 0.707107
0.000000 -0.707107 -0.707107
0.000000 0.707107 0.707107
-0.000000 -0.707107 -0.707107
0.707107 -0.707107 0.000000
-0.707107 0.707107 0.000000
-0.707107 0.707107 0.000000
-0.000000 0.707107 -0.707107
-0.000000 -0.707107 0.707107
0.707107 -0.000000 0.707107
-0.707107 -0.000000 -0.707107
0.707107 -0.707107 -0.000000
-0.707107 0.000000 0.707107
0.000000 0.707107 -0.707107
0.000000 0.707107 -0.707107
0.707107 0.000000 -0.707107
-0.707107 -0.000000 0.707107
0.000000 0.707107 0.707107
-0.000000 -0.707107 -0.707107
-0.707107 0.707107 -0.000000
-0.000000 -0.707107 0.707107
0.707107 0.000000 -0.707107
0.000000 -0.707107 -0.707107
0.707107 0.000000 0.707107
-0.707107 0.707107 0.000000
-0.707107 -0.707107 -0.000000
0.707107 0.707107 -0.000000
-0.000000 0.707107 -0.707107
-0.000000 -0.707107 0.707107
-0.707107 0.707107 -0.000000
0.707107 -0.707107 -0.000000
0.707107 -0.000000 -0.707107
-0.707107 -0.000000 0.707107
0.707107 0.000000 -0.707107
-0.707107 0.000000 0.707107
-0.707107 0.707107 -0.000000
0.707107 -0.707107 -0.000000
0.707107 -0.707107 -0.000000
-0.707107 0.707107 -0.000000
0.707107 -0.707107 -0.000000
-0.707107 0.707107 0.000000
-0.707107 -0.707107 -0.000000
0.707107 0.707107 0.000000
0.707107 0.000000 0.707107
-0.707107 -0.000000 -0.707107
0.000000 0.707107 0.707107
0.000000 -0.707107 -0.707107
0.000000 0.707107 0.707107
-0.000000 -0.707107 -0.707107
0.707107 -0.707107 0.000000
-0.707107 0.707107 -0.000000
0.707107 0.000000 0.707107
-0.707107 -0.000000 -0.707107
0.000000 -0.707107 -0.707107
-0.000000 0.707107 0.707107
-0.000000 -0.707107 -0.707107
0.000000 0.707107 0.707107
0.707107 -0.707107 -0.000000
-0.707107 0.707107 0.000000
0.707107 -0.000000 -0.707107
-0.707107 0.707107 -0.000000
0.000000 -0.707107 0.707107
-0.707107 0.000000 0.707107
0.707107 -0.000000 -0.707107
-0.000000 0.707107 0.707107
-0.000000 -0.707107 -0.707107
-0.707107 -0.707107 -0.000000
0.707107 0.707107 -0.000000
0.000000 0.707107 0.707107
-0.000000 -0.707107 -0.707107
-0.707107 -0.707107 -0.000000
0.707107 0.707107 0.000000
-0.707107 0.000000 0.707107
0.707107 0.000000 -0.707107
0.000000 -0.707107 -0.707107
0.707107 0.707107 0.000000
-0.707107 -0.000000 0.707107
-0.000000 -0.707107 -0.707107
0.000000 0.707107 -0.707107
-0.000000 -0.707107 0.707107
0.000000 0.707107 0.707107
0.000000 -0.707107 -0.707107
-0.707107 -0.707107 0.000000
0.707107 0.707107 -0.000000
-0.707107 -0.000000 0.707107
0.707107 -0.000000 -0.707107
-0.707107 -0.000000 0.707107
0.707107 0.000000 -0.707107
0.707107 -0.000000 0.707107
-0.707107 0.000000 -0.707107
-0.707107 -0.707107 0.000000
0.707107 0.707107 0.000000
0.707107 0.000000 -0.707107
-0.707107 -0.000000 0.707107
0.707107 0.000000 -0.707107
-0.707107 0.000000 0.707107
-0.707107 0.000000 -0.707107
0.707107 -0.000000 0.707107
0.707107 -0.707107 0.000000
-0.707107 0.707107 0.000000
0.707107 0.000000 -0.707107
-0.707107 -0.000000 0.707107
-0.707107 -0.707107 0.000000
0.707107 0.707107 -0.000000
-0.707107 0.707107 -0.000000
0.707107 -0.707107 -0.000000
0.000000 -0.707107 -0.707107
-0.000000 0.707107 0.707107
0.707107 -0.000000 0.707107
-0.707107 -0.000000 -0.707107
-0.707107 -0.707107 -0.000000
0.000000 0.707107 -0.707107
0.707107 -0.000000 -0.707107
0.707107 -0.000000 -0.707107
0.000000 0.707107 0.707107
-0.707107 -0.707107 0.000000
0.000000 0.707107 -0.707107
0.707107 -0.000000 0.707107
-0.707107 -0.707107 0.000000
0.707107 0.707107 -0.000000
-0.707107 -0.707107 0.000000
-0.707107 0.000000 0.707107
0.707107 0.000000 -0.707107
-0.707107 -0.000000 -0.707107
0.707107 0.000000 0.707107
-0.707107 0.707107 -0.000000
0.707107 -0.707107 0.000000
-0.707107 0.707107 -0.000000
0.707107 -0.707107 0.000000
-0.707107 -0.000000 -0.707107
0.707107 -0.000000 0.707107
0.707107 -0.000000 -0.707107
-0.707107 0.000000 0.707107
0.707107 -0.000000 -0.707107
-0.707107 -0.000000 0.707107
0.707107 -0.000000 -0.707107
-0.707107 -0.707107 0.000000
0.000000 0.707107 0.707107
0.707107 0.707107 0.000000
-0.707107 -0.707107 0.000000
0.707107 -0.707107 -0.000000
-0.707107 0.707107 0.000000
-0.707107 -0.000000 0.707107
0.707107 0.000000 -0.707107
-0.707107 0.000000 -0.707107
0.707107 0.000000 0.707107
-0.707107 -0.707107 -0.000000
0.707107 0.707107 -0.000000
-0.707107 0.707107 0.000000
0.707107 -0.707107 0.000000
0.707107 -0.000000 -0.707107
-0.707107 -0.000000 0.707107
-0.707107 -0.707107 -0.000000
0.707107 0.707107 -0.000000
0.707107 0.000000 -0.707107
-0.707107 -0.000000 0.707107
-0.000000 -0.707107 0.707107
0.000000 0.707107 -0.707107
0.707107 -0.707107 0.000000
-0.707107 0.707107 -0.000000
-0.000000 -0.707107 0.707107
0.000000 0.707107 -0.707107
-0.707107 -0.707107 0.000000
0.707107 0.707107 0.000000
-0.000000 -0.707107 0.707107
0.000000 0.707107 -0.707107
0.707107 0.000000 -0.707107
-0.707107 -0.000000 0.707107
-0.000000 0.707107 -0.707107
-0.000000 -0.707107 0.707107
0.707107 0.707107 -0.000000
-0.707107 -0.707107 -0.000000
-0.707107 -0.000000 -0.707107
0.707107 0.000000 0.707107
-0.000000 0.707107 -0.707107
0.000000 -0.707107 0.707107
0.000000 -0.707107 0.707107
-0.000000 0.707107 -0.707107
-0.000000 0.707107 -0.707107
0.707107 -0.000000 0.707107
-0.707107 -0.000000 -0.707107
-0.707107 0.000000 -0.707107
0.707107 0.000000 0.707107
-0.000000 0.707107 0.707107
0.000000 -0.707107 -0.707107
-0.707107 -0.707107 -0.000000
0.707107 0.707107 -0.000000
0.000000 -0.000000 1.414214
-0.000000 0.000000 -1.414214
-0.707107 -0.000000 -0.707107
0.707107 0.000000 0.707107
0.707107 0.000000 0.707107
0.707107 0.707107 -0.000000
-0.707107 -0.707107 -0.000000
0.707107 -0.707107 0.000000
-0.707107 0.707107 0.000000
0.707107 0.707107 -0.000000
-0.707107 -0.707107 0.000000
1.414214 0.000000 0.000000
-1.414214 -0.000000 -0.000000
-0.707107 -0.000000 0.707107
0.707107 -0.000000 -0.707107
0.707107 -0.000000 -0.707107
-0.707107 0.000000 -0.707107
0.707107 0.000000 0.707107
0.707107 -0.707107 -0.000000
-0.707107 0.707107 -0.000000
0.707107 -0.000000 0.707107
-0.707107 -0.000000 -0.707107
-0.000000 -0.707107 -0.707107
0.000000 0.707107 0.707107
-0.000000 0.707107 0.707107
-0.707107 -0.707107 -0.000000
0.707107 0.000000 -0.707107
0.000000 0.707107 -0.707107
-0.000000 -0.707107 0.707107
-0.707107 -0.707107 0.000000
0.707107 -0.000000 0.707107
0.000000 0.707107 -0.707107
0.707107 0.000000 0.707107
-0.707107 0.000000 -0.707107
0.707107 0.707107 0.000000
-0.707107 -0.707107 0.000000
-0.707107 0.000000 -0.707107
0.707107 -0.707107 -0.000000
-0.707107 0.707107 -0.000000
-0.707107 -0.707107 -0.000000
0.707107 0.707107 -0.000000
-0.707107 0.707107 0.000000
0.707107 -0.707107 -0.000000
0.707107 -0.707107 -0.000000
-0.707107 0.707107 0.000000
-0.707107 -0.707107 -0.000000
0.707107 0.707107 0.000000
0.000000 -0.707107 -0.707107
-0.707107 0.707107 -0.000000
-0.707107 -0.707107 -0.000000
0.707107 0.707107 -0.000000
0.000000 -0.707107 0.707107
0.000000 0.707107 -0.707107
-0.707107 -0.000000 -0.707107
0.707107 0.000000 0.707107
-0.000000 -0.707107 -0.707107
-0.000000 0.707107 0.707107
0.707107 -0.000000 0.707107
-0.707107 0.000000 -0.707107
0.000000 -0.707107 -0.707107
0.000000 0.707107 0.707107
0.000000 0.707107 0.707107
0.707107 0.707107 -0.000000
-0.707107 -0.707107 -0.000000
0.707107 -0.707107 0.000000
-0.707107 0.707107 0.000000
-0.707107 0.000000 -0.707107
0.707107 0.000000 0.707107
-0.707107 0.000000 0.707107
0.707107 -0.707107 -0.000000
0.707107 -0.707107 -0.000000
0.000000 0.707107 -0.707107
-0.707107 -0.000000 -0.707107
0.707107 -0.000000 0.707107
0.000000 0.707107 0.707107
0.000000 -0.707107 -0.707107
-0.707107 -0.707107 -0.000000
0.707107 0.000000 0.707107
0.000000 0.707107 -0.707107
-0.707107 0.000000 -0.707107
0.707107 0.000000 0.707107
0.000000 0.707107 -0.707107
-0.000000 -0.707107 0.707107
0.000000 -0.707107 0.707107
0.707107 0.000000 -0.707107
-0.707107 0.707107 0.000000
-0.000000 -0.707107 -0.707107
-0.000000 0.707107 0.707107
0.707107 0.707107 0.000000
-0.707107 -0.707107 0.000000
-0.707107 0.000000 0.707107
-0.707107 0.000000 0.707107
0.707107 -0.000000 -0.707107
-0.707107 0.000000 -0.707107
0.707107 0.000000 0.707107
-0.000000 -0.707107 -0.707107
0.000000 0.707107 0.707107
0.707107 0.000000 -0.707107
-0.707107 -0.000000 0.707107
0.707107 -0.000000 0.707107
-0.707107 0.000000 -0.707107
0.000000 0.707107 0.707107
-0.707107 0.000000 -0.707107
0.707107 -0.707107 0.000000
0.707107 -0.707107 0.000000
-0.707107 0.707107 0.000000
-0.707107 0.000000 -0.707107
0.707107 0.000000 0.707107
-0.000000 -0.707107 -0.707107
0.000000 0.707107 0.707107
0.707107 -0.000000 0.707107
-0.707107 0.000000 -0.707107
0.707107 0.000000 -0.707107
-0.707107 0.000000 0.707107
0.000000 0.707107 0.707107
-0.000000 -0.707107 -0.707107
-0.000000 -0.707107 -0.707107
-0.707107 -0.707107 -0.000000
0.707107 0.707107 -0.000000
-0.000000 0.707107 0.707107
-0.000000 -0.707107 -0.707107
-0.707107 0.707107 -0.000000
0.707107 -0.707107 0.000000
-0.707107 0.707107 0.000000
0.707107 -0.707107 -0.000000
0.707107 0.000000 -0.707107
-0.707107 -0.000000 0.707107
-0.707107 0.707107 0.000000
0.707107 -0.707107 0.000000
0.707107 -0.707107 0.000000
0.707107 0.707107 0.000000
-0.707107 -0.707107 -0.000000
0.000000 0.707107 0.707107
0.000000 -0.707107 -0.707107
0.000000 -0.707107 -0.707107
0.000000 0.707107 0.707107
-0.707107 -0.000000 -0.707107
0.707107 0.707107 -0.000000
0.000000 -0.707107 0.707107
-0.707107 -0.000000 -0.707107
0.707107 -0.000000 0.707107
0.000000 -0.707107 0.707107
0.707107 -0.707107 0.000000
-0.707107 0.707107 -0.000000
-0.707107 0.000000 -0.707107
0.707107 0.000000 0.707107
0.707107 -0.707107 0.000000
-0.707107 0.707107 0.000000
-0.707107 0.707107 0.000000
0.707107 -0.707107 0.000000
-0.000000 0.707107 -0.707107
0.000000 -0.707107 0.707107
0.707107 -0.707107 0.000000
-0.707107 0.707107 -0.000000
0.707107 -0.707107 -0.000000
-0.707107 0.707107 0.000000
0.707107 -0.707107 -0.000000
-0.707107 0.000000 -0.707107
0.000000 0.707107 0.707107
0.707107 -0.707107 -0.000000
-0.707107 0.707107 0.000000
0.707107 -0.707107 0.000000
-0.707107 0.707107 -0.000000
-0.000000 0.707107 0.707107
0.000000 -0.707107 -0.707107
0.707107 -0.707107 -0.000000
-0.707107 0.707107 0.000000
-0.707107 0.000000 0.707107
0.707107 -0.707107 -0.000000
0.000000 0.707107 -0.707107
-0.000000 -0.707107 -0.707107
-0.000000 0.707107 0.707107
-0.707107 -0.000000 0.707107
0.707107 0.000000 -0.707107
-0.707107 -0.000000 0.707107
0.707107 -0.000000 -0.707107
-0.000000 -0.707107 0.707107
0.000000 0.707107 -0.707107
-0.707107 -0.707107 -0.000000
0.707107 -0.000000 -0.707107
0.000000 0.707107 0.707107
0.707107 0.000000 0.707107
-0.707107 -0.000000 -0.707107
0.707107 0.000000 0.707107
-0.707107 -0.000000 -0.707107
0.000000 0.707107 0.707107
0.000000 -0.707107 -0.707107
0.707107 -0.000000 -0.707107
-0.707107 -0.000000 0.707107
-0.000000 -0.707107 0.707107
-0.000000 0.707107 -0.707107
-0.707107 0.707107 -0.000000
-0.707107 0.707107 -0.000000
0.707107 -0.707107 0.000000
-0.707107 0.000000 0.707107
0.707107 -0.000000 0.707107
-0.707107 0.000000 -0.707107
0.707107 0.000000 0.707107
-0.000000 0.707107 -0.707107
-0.707107 -0.707107 0.000000
-0.000000 -0.707107 -0.707107
0.000000 0.707107 0.707107
0.707107 -0.707107 -0.000000
-0.707107 0.707107 0.000000
-0.707107 -0.707107 0.000000
0.707107 0.707107 -0.000000
0.707107 -0.707107 -0.000000
-0.707107 0.707107 0.000000
0.000000 -0.707107 -0.707107
-0.707107 0.000000 0.707107
0.707107 0.707107 -0.000000
0.707107 0.000000 -0.707107
-0.707107 0.707107 -0.000000
-0.000000 -0.707107 0.707107
-0.707107 -0.000000 -0.707107
-0.707107 -0.000000 -0.707107
0.707107 -0.000000 0.707107
0.707107 0.707107 -0.000000
-0.707107 -0.707107 -0.000000
-0.707107 0.000000 -0.707107
0.707107 -0.000000 0.707107
0.707107 0.707107 -0.000000
-0.707107 -0.707107 0.000000
0.707107 -0.000000 0.707107
-0.707107 0.000000 -0.707107
-0.707107 0.707107 0.000000
0.707107 -0.707107 -0.000000
0.707107 -0.707107 0.000000
-0.707107 0.707107 0.000000
0.000000 0.707107 -0.707107
-0.000000 -0.707107 0.707107
0.000000 0.707107 -0.707107
0.000000 -0.707107 0.707107
-0.707107 0.000000 -0.707107
0.707107 0.000000 0.707107
0.000000 -0.707107 0.707107
-0.000000 0.707107 -0.707107
0.000000 -0.707107 0.707107
-0.000000 0.707107 -0.707107
-0.000000 -0.707107 -0.707107
0.000000 0.707107 0.707107
-0.000000 0.707107 0.707107
-0.000000 -0.707107 -0.707107
-0.000000 0.707107 -0.707107
0.000000 -0.707107 0.707107
0.000000 0.707107 -0.707107
-0.000000 -0.707107 0.707107
0.707107 0.000000 0.707107
-0.707107 0.000000 -0.707107
-0.707107 -0.000000 -0.707107
0.707107 -0.000000 0.707107
0.707107 0.000000 0.707107
0.000000 -0.707107 -0.707107
-0.707107 0.707107 -0.000000
-0.000000 0.707107 0.707107
-0.000000 -0.707107 -0.707107
0.000000 0.707107 -0.707107
0.000000 -0.707107 0.707107
-0.707107 0.707107 0.000000
0.000000 -0.707107 0.707107
0.707107 -0.000000 -0.707107
-0.000000 -0.707107 -0.707107
0.000000 0.707107 0.707107
0.000000 0.707107 0.707107
-0.000000 -0.707107 0.707107
0.000000 0.707107 -0.707107
0.000000 0.707107 -0.707107
-0.000000 -0.707107 0.707107
-0.707107 -0.707107 0.000000
0.707107 0.707107 -0.000000
0.707107 -0.707107 -0.000000
-0.707107 0.707107 0.000000
0.707107 0.707107 -0.000000
-0.707107 -0.707107 -0.000000
-0.707107 -0.000000 -0.707107
0.707107 0.000000 0.707107
0.000000 -0.707107 0.707107
0.000000 0.707107 -0.707107
-0.707107 -0.000000 0.707107
0.707107 -0.000000 -0.707107
0.707107 -0.000000 -0.707107
-0.707107 -0.000000 0.707107
0.000000 0.707107 -0.707107
0.000000 -0.707107 0.707107
0.000000 0.707107 0.707107
0.000000 -0.707107 -0.707107
-0.707107 0.707107 0.000000
0.707107 -0.707107 -0.000000
0.000000 -0.707107 -0.707107
-0.000000 0.707107 0.707107
-0.707107 -0.000000 -0.707107
0.707107 -0.000000 0.707107
0.707107 -0.707107 0.000000
-0.707107 0.000000 0.707107
0.000000 0.707107 -0.707107
-0.707107 -0.000000 -0.707107
0.707107 -0.000000 0.707107
-0.707107 0.000000 -0.707107
0.707107 -0.000000 0.707107
-0.707107 0.707107 -0.000000
0.707107 -0.707107 0.000000
-0.000000 -0.707107 -0.707107
0.000000 0.707107 0.707107
-0.000000 0.707107 0.707107
-0.000000 -0.707107 -0.707107
-0.707107 -0.707107 -0.000000
0.707107 0.707107 0.000000
-0.000000 -0.707107 0.707107
0.000000 0.707107 -0.707107
-0.707107 -0.707107 -0.000000
0.707107 0.707107 -0.000000
0.707107 -0.707107 -0.000000
0.707107 -0.707107 -0.000000
-0.707107 0.707107 0.000000
-0.707107 0.707107 -0.000000
0.707107 0.000000 -0.707107
-0.000000 -0.707107 0.707107
0.707107 0.000000 0.707107
-0.707107 -0.000000 -0.707107
0.707107 0.707107 -0.000000
-0.707107 -0.707107 0.000000
0.707107 0.000000 -0.707107
-0.707107 -0.000000 0.707107
0.707107 0.000000 0.707107
-0.707107 -0.000000 -0.707107
0.000000 -0.707107 0.707107
0.707107 -0.000000 -0.707107
-0.707107 0.707107 -0.000000
0.707107 -0.000000 0.707107
-0.707107 0.000000 -0.707107
-0.707107 0.000000 -0.707107
0.707107 0.000000 0.707107
0.707107 -0.000000 -0.707107
-0.707107 0.000000 0.707107
0.707107 -0.707107 -0.000000
-0.707107 0.707107 -0.000000
-0.707107 0.000000 -0.707107
0.000000 -0.707107 0.707107
0.707107 0.707107 -0.000000
-0.000000 0.707107 0.707107
0.000000 -0.707107 -0.707107
-0.707107 0.000000 -0.707107
0.707107 -0.000000 0.707107
0.707107 -0.707107 0.000000
0.000000 0.707107 0.707107
-0.707107 0.000000 -0.707107
-0.707107 0.000000 0.707107
0.707107 -0.707107 0.000000
0.000000 0.707107 -0.707107
-0.707107 -0.000000 0.707107
0.707107 -0.000000 -0.707107
0.707107 -0.000000 -0.707107
-0.707107 0.000000 0.707107
0.707107 0.000000 -0.707107
0.707107 0.000000 -0.707107
-0.707107 -0.707107 0.000000
-0.000000 0.707107 0.707107
0.000000 0.707107 -0.707107
-0.000000 -0.707107 0.707107
-0.000000 0.707107 0.707107
-0.707107 -0.707107 0.000000
-0.000000 -0.707107 -0.707107
0.707107 0.707107 -0.000000
0.707107 0.000000 0.707107
-0.707107 -0.000000 -0.707107
0.000000 0.707107 -0.707107
-0.000000 -0.707107 0.707107
-0.000000 -0.707107 -0.707107
-0.000000 0.707107 0.707107
0.707107 0.000000 0.707107
-0.707107 -0.000000 -0.707107
0.707107 0.707107 -0.000000
-0.707107 -0.707107 -0.000000
0.707107 0.000000 0.707107
-0.707107 -0.000000 -0.707107
0.707107 -0.000000 -0.707107
-0.707107 0.000000 0.707107
0.707107 0.707107 -0.000000
-0.707107 -0.707107 0.000000
0.707107 -0.707107 0.000000
-0.707107 0.707107 -0.000000
0.000000 -0.707107 0.707107
-0.000000 0.707107 -0.707107
0.000000 0.707107 -0.707107
-0.000000 -0.707107 0.707107
-0.000000 0.707107 0.707107
-0.000000 -0.707107 -0.707107
0.707107 0.707107 0.000000
-0.707107 -0.707107 -0.000000
0.000000 -0.707107 -0.707107
0.000000 0.707107 0.707107
0.707107 0.000000 0.707107
-0.707107 0.000000 -0.707107
0.707107 -0.707107 -0.000000
-0.707107 0.707107 0.000000
-0.707107 0.000000 -0.707107
-0.000000 -0.707107 0.707107
0.707107 0.707107 0.000000
0.707107 0.000000 0.707107
-0.707107 -0.000000 -0.707107
-0.707107 -0.707107 0.000000
-0.707107 0.707107 0.000000
0.707107 -0.707107 -0.000000
-0.000000 -0.707107 0.707107
0.000000 0.707107 -0.707107
0.707107 0.000000 0.707107
-0.707107 -0.000000 -0.707107
0.000000 0.707107 -0.707107
-0.000000 -0.707107 0.707107
-0.000000 -0.707107 0.707107
-0.000000 0.707107 -0.707107
0.000000 -0.707107 0.707107
-0.707107 0.707107 0.000000
0.707107 -0.707107 -0.000000
0.000000 0.707107 -0.707107
-0.000000 -1.414214 -0.000000
0.000000 0.707107 0.707107
0.000000 -0.707107 -0.707107
-0.000000 0.707107 0.707107
0.707107 -0.000000 0.707107
0.707107 -0.000000 0.707107
-0.707107 0.000000 -0.707107
-0.707107 -0.707107 -0.000000
0.707107 0.707107 -0.000000
-0.707107 -0.000000 -0.707107
0.707107 0.000000 0.707107
-0.707107 0.000000 0.707107
0.707107 0.000000 -0.707107
-0.707107 -0.000000 0.707107
0.707107 0.000000 -0.707107
0.707107 -0.000000 0.707107
0.707107 0.000000 -0.707107
-0.000000 -0.707107 -0.707107
-0.707107 0.000000 0.707107
0.000000 0.707107 0.707107
0.707107 0.000000 0.707107
-0.707107 -0.000000 -0.707107
-0.707107 -0.000000 -0.707107
0.707107 -0.707107 0.000000
0.000000 0.707107 0.707107
0.707107 -0.000000 0.707107
-0.707107 0.000000 -0.707107
-0.000000 -0.707107 0.707107
-0.000000 0.707107 -0.707107
0.000000 -0.707107 -0.707107
0.000000 0.707107 0.707107
-0.000000 -0.707107 0.707107
0.000000 0.707107 -0.707107
-0.000000 0.707107 0.707107
-0.000000 -0.707107 -0.707107
0.000000 -0.707107 0.707107
0.000000 0.707107 -0.707107
0.707107 -0.000000 0.707107
-0.707107 0.000000 -0.707107
-0.000000 -0.707107 0.707107
0.000000 0.707107 -0.707107
0.707107 -0.707107 0.000000
-0.707107 0.707107 0.000000
-0.000000 -0.707107 -0.707107
0.707107 0.000000 0.707107
-0.707107 0.707107 0.000000
0.707107 -0.000000 -0.707107
-0.707107 -0.000000 0.707107
0.707107 0.000000 0.707107
-0.707107 -0.000000 -0.707107
0.707107 -0.707107 -0.000000
-0.707107 0.707107 -0.000000
-0.707107 0.000000 -0.707107
0.707107 -0.000000 0.707107
-0.707107 -0.707107 -0.000000
0.707107 0.000000 -0.707107