# vtk DataFile Version 3.0
Configuration exported from OpenDiS
ASCII
DATASET UNSTRUCTURED_GRID
POINTS 28516 FLOAT
-29412.000000 -29412.000000 -29412.000000
29412.000000 -29412.000000 -29412.000000
-29412.000000 29412.000000 -29412.000000
-29412.000000 -29412.000000 29412.000000
29412.000000 29412.000000 -29412.000000
29412.000000 -29412.000000 29412.000000
-29412.000000 29412.000000 29412.000000
29412.000000 29412.000000 29412.000000
4306.791413 5572.200897 -1725.474942
3917.835374 4569.249051 -2339.471156
4306.791413 5572.200897 -1725.474942
4606.825915 6404.071373 -1193.639375
346.170467 20419.576029 20637.009518
346.170467 21688.213851 19368.371696
346.170467 20419.576029 20637.009518
831.327919 20376.284421 21165.458578
346.170467 20419.576029 20637.009518
144.596409 20480.660055 20777.499550
20293.657720 9372.229977 25069.703843
20293.657720 8850.940170 24562.181185
20293.657720 9372.229977 25069.703843
20293.657720 10363.406951 26056.823441
2237.589457 -24526.170886 8508.296033
3090.111360 -24180.059788 9014.706838
2237.589457 -24526.170886 8508.296033
987.475845 -24971.582495 7703.594029
29407.545123 -24697.189707 -1279.355613
29160.820025 -25683.341279 -2512.232283
29407.545123 -24697.189707 -1279.355613
29412.000000 -24663.713931 -1241.424960
-29411.999988 -24663.713931 -1241.424960
-29299.077810 -23815.170096 -279.958936
-29123.863214 -24961.135170 20376.423535
-29412.000002 -25377.323964 20504.475541
29411.999986 -25377.323964 20504.475541
28877.577199 -26149.251705 20741.980483
-29123.863214 -24961.135170 20376.423535
-28894.612136 -24068.201461 19712.740904
-15359.561507 15858.820224 15975.066477
-16079.645949 16578.904666 15975.066477
-15359.561507 15858.820224 15975.066477
-14566.783459 15066.042176 15975.066477
10179.109922 -11499.203958 -2820.617746
8848.103164 -12593.088316 -2583.495346
10179.109922 -11499.203958 -2820.617746
10754.319890 -10923.993990 -2820.617746
-2580.732853 -12646.285404 8661.127445
-1686.620135 -12646.285404 7767.014727
-2580.732853 -12646.285404 8661.127445
-3471.066615 -12646.285404 9551.461206
3815.029870 25638.080578 -1014.191917
4677.836387 25638.080578 -1876.998434
3815.029870 25638.080578 -1014.191917
2959.602594 25638.080578 -157.908815
7079.657955 17441.141893 14790.684898
7841.634833 17441.141893 15552.661776
7079.657955 17441.141893 14790.684898
6360.481202 17441.141893 14071.508144
-25326.594800 8895.540856 6104.833733
-26043.562363 8895.540856 5387.866170
-25326.594800 8895.540856 6104.833733
-25329.329455 10060.314235 4942.795010
-28862.336922 15183.970648 5962.207853
-29281.007940 14470.872963 7093.976557
-28862.336922 15183.970648 5962.207853
-28189.277391 14447.017797 6026.101174
-28862.336922 15183.970648 5962.207853
-29123.519237 13878.939753 4918.359273
-687.718443 -3409.086539 -4493.384011
-1321.712732 -3409.086539 -5104.865109
-687.718443 -3409.086539 -4493.384011
195.761453 -3409.086539 -3610.394926
-18168.256330 -11251.877338 -20594.882877
-19124.147856 -11003.161783 -19887.706905
-18168.256330 -11251.877338 -20594.882877
-17372.388092 -11461.226752 -21181.401701
21907.819874 22996.901681 -24931.959722
22947.056981 22996.901681 -25985.943081
21907.819874 22996.901681 -24931.959722
20970.018923 22996.901681 -23999.088417
1379.808662 21382.441858 22365.988632
755.226245 22387.640501 22746.604858
1379.808662 21382.441858 22365.988632
1848.082165 20553.338484 22005.158761
28703.548072 2459.807035 -7386.044931
29411.999995 3675.432350 -6878.871526
-29411.999994 3675.432350 -6878.871526
-29348.438097 3784.497569 -6833.368213
28703.548072 2459.807035 -7386.044931
27552.454924 1053.551542 -7641.207306
-27466.545960 -22333.626657 20019.249531
-27768.625151 -22635.705848 20019.249531
-27466.545960 -22333.626657 20019.249531
-26212.964191 -21080.044888 20019.249531
-13333.115162 26192.908228 13569.858545
-12750.206152 26425.120775 13920.555008
-13333.115162 26192.908228 13569.858545
-13658.551627 26088.630429 13348.699879
-19429.584211 27517.606476 -26889.936360
-20280.907674 28242.140584 -26763.147004
-19429.584211 27517.606476 -26889.936360
-18617.836633 26839.922531 -27023.999994
-5674.856369 -15424.528777 -23407.431565
-4964.135278 -15297.849627 -23991.473506
-5674.856369 -15424.528777 -23407.431565
-6419.653147 -15553.767695 -22791.873705
23625.081081 26212.844612 28962.193839
23228.966174 26254.384971 29399.849105
23625.081081 26212.844612 28962.193839
23927.518435 26173.445179 28620.357052
13370.469032 -23281.275520 -715.862368
12798.156103 -23057.840098 -1064.739874
13370.469032 -23281.275520 -715.862368
14542.205298 -23591.196482 145.952936
-3120.062892 26424.948990 22908.624210
-3898.820707 27203.706804 22908.624210
-3120.062892 26424.948990 22908.624210
-2341.305078 25646.191176 22908.624210
-22610.071728 11460.553694 27623.843229
-22610.071728 12743.757146 26340.639778
-22610.071728 11460.553694 27623.843229
-22610.071728 10750.722007 28333.674916
-10953.959343 -7788.857737 12694.510332
-10158.281569 -7845.608851 13433.436992
-10953.959343 -7788.857737 12694.510332
-11630.333970 -7775.781038 12031.212404
21698.410054 -11932.643855 5961.627961
22262.497007 -11476.527551 4941.425031
21698.410054 -11932.643855 5961.627961
21322.567397 -12332.997081 6737.823518
2557.745483 17662.476655 12113.845931
2063.638364 18222.669436 13168.145832
2557.745483 17662.476655 12113.845931
2944.821740 17003.121156 11067.414176
14298.343870 -10116.090155 -20163.555515
14028.038877 -11409.476966 -21186.637334
14298.343870 -10116.090155 -20163.555515
14423.416579 -9046.012390 -19218.550459
4718.872750 -6756.119691 12078.405691
4718.872750 -5975.032369 12859.493375
4718.872750 -6756.119691 12078.405691
4718.872750 -7655.267716 11179.257667
4711.416015 -15863.318826 3435.744392
5269.652946 -16837.753781 3851.942415
4711.416015 -15863.318826 3435.744392
4511.437413 -15501.063489 3273.467656
-16788.550536 24262.056682 -15898.438383
-17813.875013 24262.056682 -16923.679514
-16788.550536 24262.056682 -15898.438383
-15904.225616 24262.056682 -15014.113464
10978.473901 -19216.745951 -7427.699222
11039.320882 -18691.212469 -6963.012721
10978.473901 -19216.745951 -7427.699222
10892.332322 -18603.760738 -7954.542856
-6592.071114 19849.428938 -9615.198193
-7551.809260 18911.499419 -9615.198193
-6592.071114 19849.428938 -9615.198193
-5689.770343 20751.510837 -9615.198193
-24872.884381 -15453.964239 24660.877348
-23859.308681 -16973.294387 25166.631796
-24872.884381 -15453.964239 24660.877348
-25317.991163 -15002.960112 24654.980003
19268.673191 -1644.963352 11701.479390
20586.944559 -669.171959 12043.959364
19268.673191 -1644.963352 11701.479390
18876.350694 -2132.900024 11797.093564
-27610.165824 25524.098944 -22846.621940
-28883.346570 26702.313974 -22846.621940
-27610.165824 25524.098944 -22846.621940
-26618.346342 24535.512488 -22846.621940
14652.332968 21531.948371 16073.827850
15067.068853 21117.212485 16073.827850
14652.332968 21531.948371 16073.827850
13874.409960 22309.871378 16073.827849
-10135.781765 -8905.769504 -8973.573479
-10035.501417 -9957.950684 -10126.035008
-10135.781765 -8905.769504 -8973.573479
-10419.827774 -7954.528087 -7738.286053
-15062.930520 -11850.186101 21939.424415
-15057.314603 -11910.111434 22004.932485
-15062.930520 -11850.186101 21939.424415
-15627.882566 -12646.285410 21708.277162
-15062.930520 -11850.186101 21939.424415
-15826.265180 -11850.186101 22702.759075
-8675.784790 18340.277157 19859.683346
-9120.465278 19288.855425 20363.581127
-8675.784790 18340.277157 19859.683346
-8332.706697 17371.242580 19233.726863
-11066.290467 2641.923953 27405.348776
-12070.432682 1648.014075 27395.116438
-11066.290467 2641.923953 27405.348776
-10351.401167 3354.317904 27407.844125
6885.817685 6821.554858 22707.454515
7247.206584 7185.042112 22705.356158
6885.817685 6821.554858 22707.454515
6244.958371 6167.579379 22720.570680
-12922.141568 -16016.404687 -13297.848859
-13069.614732 -15261.516801 -12395.487810
-12922.141568 -16016.404687 -13297.848859
-12868.047555 -16500.151403 -13835.689817
14328.093394 -7404.598597 5383.101571
14609.214875 -7695.130336 5383.101571
14328.093394 -7404.598597 5383.101571
12960.483501 -6046.542032 5383.101571
-23195.628156 -17406.786008 22705.828429
-22516.096752 -17714.763359 22334.274375
-23195.628156 -17406.786008 22705.828429
-21720.184508 -16775.257398 23549.743467
-8440.960199 -3844.531071 -16771.418191
-9261.066530 -3992.454334 -17443.601259
-8440.960199 -3844.531071 -16771.418191
-7683.943476 -3711.210486 -16147.722053
-6519.688831 -12498.762666 -23513.989935
-6519.688831 -12106.920784 -23935.790473
-6519.688831 -12498.762666 -23513.989935
-6519.688831 -13317.979655 -22624.866733
13153.663977 27716.437105 12774.685077
13032.518174 26905.107045 13464.869335
13153.663977 27716.437105 12774.685077
13296.229746 28467.732812 12165.955139
-1399.093312 8674.003889 2695.871746
-971.666346 9578.583580 2218.719020
-1399.093312 8674.003889 2695.871746
-1689.570176 7826.236594 3253.162176
5418.565433 12958.271104 -7419.243967
5459.109154 13838.798205 -8259.227347
5418.565433 12958.271104 -7419.243967
5317.637863 11809.567758 -6371.468191
-2909.592004 -3409.086539 -6714.940431
-1810.314506 -3409.086539 -5615.662933
-2909.592004 -3409.086539 -6714.940431
-3740.860730 -3409.086539 -7544.969736
-20007.261818 28424.951889 -9824.921042
-20046.694719 28640.684730 -9569.755300
-20007.261818 28424.951889 -9824.921042
-20208.391854 27739.441070 -10309.301826
8948.898684 4978.563117 22404.094740
8561.558072 4807.468312 22187.848932
8948.898684 4978.563117 22404.094740
9743.451349 5105.281702 21736.260660
8948.898684 4978.563117 22404.094740
8948.898684 4103.582849 23279.075002
-13029.981195 -17762.588847 -11556.803019
-13748.139590 -17762.588847 -10838.351980
-13029.981195 -17762.588847 -11556.803019
-12319.619000 -17762.588847 -12267.466957
28598.121740 -20298.077957 24814.251101
28211.965454 -21123.896586 24374.615254
28598.121740 -20298.077957 24814.251101
28930.485851 -19471.323524 25308.587693
25153.762812 -27796.806245 -13708.914062
[...]
CELL_DATA 14255
VECTORS Burgers FLOAT
0.000000 0.000000 0.000000
0.000000 0.707107 0.707107
-0.000000 -0.707107 -0.707107
0.000000 0.707107 0.707107
-0.707107 0.000000 -0.707107
0.707107 -0.707107 0.000000
0.000000 -0.707107 0.707107
0.000000 0.707107 -0.707107
-0.707107 0.000000 -0.707107
0.707107 0.000000 0.707107
-0.707107 0.707107 -0.000000
0.707107 -0.707107 0.000000
0.707107 -0.707107 0.000000
0.707107 0.000000 0.707107
0.707107 0.000000 0.707107
-0.707107 0.000000 -0.707107
-0.707107 -0.707107 0.000000
0.707107 0.707107 -0.000000
0.707107 0.707107 -0.000000
-0.707107 -0.707107 -0.000000
-0.707107 0.000000 -0.707107
0.707107 0.000000 0.707107
-0.707107 0.000000 -0.707107
0.707107 0.000000 0.707107
-0.707107 0.000000 0.707107
0.707107 -0.000000 -0.707107
0.707107 0.000000 -0.707107
-0.707107 -0.000000 0.707107
-0.707107 0.707107 0.000000
-0.000000 -0.707107 0.707107
0.707107 -0.000000 -0.707107
0.707107 -0.000000 -0.707107
-0.707107 0.000000 0.707107
-0.707107 0.707107 0.000000
0.707107 -0.707107 -0.000000
-0.707107 0.000000 -0.707107
0.707107 0.000000 0.707107
0.000000 -0.707107 -0.707107
-0.000000 0.707107 0.707107
0.000000 -0.707107 -0.707107
0.000000 -0.707107 -0.707107
-0.000000 0.707107 0.707107
-0.000000 1.414214 0.000000
0.000000 -1.414214 -0.000000
-0.707107 0.000000 -0.707107
0.707107 -0.000000 0.707107
0.707107 -0.000000 -0.707107
-0.707107 0.000000 0.707107
-0.707107 -0.707107 0.000000
0.707107 0.707107 -0.000000
0.707107 -0.000000 -0.707107
-0.707107 0.000000 0.707107
-0.000000 -0.707107 -0.707107
0.000000 0.707107 0.707107
-0.707107 -0.707107 0.000000
0.707107 0.707107 -0.000000
-0.000000 0.707107 0.707107
0.000000 -0.707107 -0.707107
0.000000 0.707107 0.707107
-0.000000 -0.707107 -0.707107
-0.707107 0.000000 0.707107
0.707107 -0.000000 -0.707107
-0.000000 -0.707107 -0.707107
0.000000 0.707107 0.707107
-0.707107 -0.707107 -0.000000
0.707107 0.707107 -0.000000
-0.000000 0.707107 -0.707107
-0.000000 -0.707107 0.707107
-0.707107 0.707107 -0.000000
0.707107 -0.707107 -0.000000
0.707107 -0.000000 -0.707107
-0.707107 -0.000000 0.707107
0.707107 0.000000 -0.707107
-0.707107 0.000000 0.707107
-0.707107 0.707107 -0.000000
0.707107 -0.707107 -0.000000
-0.707107 0.000000 0.707107
0.707107 -0.000000 -0.707107
0.000000 -0.707107 0.707107
-0.000000 0.707107 -0.707107
-0.707107 -0.707107 -0.000000
0.707107 0.707107 0.000000
0.707107 0.707107 0.000000
-0.707107 -0.707107 -0.000000
0.000000 0.707107 0.707107
0.000000 -0.707107 -0.707107
-0.000000 0.707107 -0.707107
-0.707107 -0.707107 0.000000
0.707107 -0.000000 0.707107
0.707107 -0.707107 0.000000
-0.707107 0.707107 -0.000000
0.707107 0.000000 0.707107
-0.707107 -0.000000 -0.707107
-0.707107 -0.707107 -0.000000
0.707107 0.707107 0.000000
-0.000000 -0.707107 -0.707107
0.000000 0.707107 0.707107
0.707107 0.707107 -0.000000
-0.707107 -0.707107 0.000000
-0.000000 0.707107 -0.707107
0.000000 -0.707107 0.707107
-0.707107 -0.707107 -0.000000
0.707107 0.707107 0.000000
-0.000000 0.707107 0.707107
-0.000000 -0.707107 -0.707107
0.707107 0.707107 -0.000000
-0.707107 -0.707107 0.000000
0.000000 -0.707107 0.707107
-0.000000 0.707107 -0.707107
-0.707107 -0.707107 -0.000000
0.707107 0.707107 0.000000
-0.707107 0.000000 0.707107
0.707107 0.000000 -0.707107
0.707107 0.000000 -0.707107
-0.707107 -0.000000 0.707107
0.707107 0.707107 0.000000
-0.707107 -0.000000 0.707107
-0.000000 -0.707107 -0.707107
0.707107 -0.000000 0.707107
-0.707107 0.000000 -0.707107
0.000000 0.707107 0.707107
-0.000000 -0.707107 -0.707107
-0.707107 -0.707107 0.000000
0.707107 0.707107 -0.000000
0.707107 0.000000 -0.707107
0.000000 0.707107 0.707107
-0.707107 -0.707107 0.000000
-0.707107 -0.000000 0.707107
0.707107 0.000000 -0.707107
0.707107 -0.000000 0.707107
-0.707107 0.707107 -0.000000
0.000000 -0.707107 -0.707107
-0.707107 -0.707107 0.000000
0.707107 0.707107 0.000000
0.707107 0.000000 -0.707107
-0.707107 -0.000000 0.707107
0.000000 0.707107 0.707107
0.000000 -0.707107 -0.707107
-0.707107 0.000000 -0.707107
0.707107 -0.000000 0.707107
0.707107 -0.707107 0.000000
-0.707107 0.707107 0.000000
0.707107 0.000000 -0.707107
-0.707107 -0.000000 0.707107
0.707107 0.000000 -0.707107
-0.707107 -0.000000 0.707107
-0.707107 0.707107 -0.000000
0.707107 -0.707107 -0.000000
0.000000 -0.707107 -0.707107
-0.000000 0.707107 0.707107
0.707107 -0.000000 0.707107
-0.707107 -0.000000 -0.707107
0.000000 -0.707107 -0.707107
-0.000000 0.707107 0.707107
0.707107 -0.707107 0.000000
-0.000000 0.707107 -0.707107
-0.707107 -0.000000 0.707107
-0.707107 -0.000000 0.707107
0.707107 -0.707107 -0.000000
0.000000 0.707107 -0.707107
0.707107 0.707107 -0.000000
-0.707107 -0.707107 0.000000
-0.707107 0.000000 0.707107
0.707107 0.000000 -0.707107
0.000000 -0.707107 -0.707107
-0.707107 0.707107 0.000000
0.707107 0.000000 0.707107
0.000000 0.707107 -0.707107
-0.000000 -0.707107 0.707107
-0.707107 0.707107 -0.000000
0.707107 -0.707107 0.000000
-0.707107 -0.000000 -0.707107
0.707107 -0.000000 0.707107
-0.707107 0.707107 -0.000000
0.707107 -0.707107 0.000000
0.707107 -0.000000 -0.707107
-0.707107 -0.000000 0.707107
0.707107 -0.000000 -0.707107
0.000000 0.707107 0.707107
-0.707107 -0.707107 -0.000000
0.707107 0.707107 0.000000
-0.707107 -0.707107 0.000000
-0.000000 -0.707107 -0.707107
0.000000 0.707107 0.707107
-0.707107 -0.000000 0.707107
0.707107 0.000000 -0.707107
0.707107 -0.707107 -0.000000
-0.707107 0.707107 0.000000
-0.707107 -0.707107 -0.000000
0.707107 0.707107 -0.000000
-0.707107 0.707107 0.000000
0.707107 -0.707107 0.000000
0.707107 0.707107 0.000000
-0.707107 -0.707107 -0.000000
-0.707107 0.000000 -0.707107
0.707107 -0.000000 0.707107
0.707107 0.000000 -0.707107
-0.707107 -0.000000 0.707107
-0.000000 -0.707107 0.707107
0.000000 0.707107 -0.707107
0.707107 -0.707107 0.000000
-0.707107 0.707107 -0.000000
0.707107 0.000000 0.707107
-0.707107 -0.000000 -0.707107
-0.707107 -0.707107 0.000000
0.707107 0.707107 0.000000
0.000000 0.707107 0.707107
0.000000 -0.707107 -0.707107
0.000000 -0.707107 -0.707107
-0.000000 0.707107 0.707107
-0.707107 -0.707107 -0.000000
0.707107 0.707107 0.000000
-0.707107 0.707107 0.000000
0.707107 -0.000000 0.707107
-0.707107 0.000000 -0.707107
0.707107 -0.707107 -0.000000
-0.707107 -0.000000 -0.707107
0.707107 0.000000 0.707107
0.707107 0.707107 -0.000000
-0.707107 -0.707107 -0.000000
0.000000 -0.707107 0.707107
-0.000000 0.707107 -0.707107
-0.000000 0.707107 -0.707107
0.707107 -0.000000 0.707107
-0.707107 -0.000000 -0.707107
0.000000 0.707107 -0.707107
-0.000000 -0.707107 0.707107
0.707107 0.000000 -0.707107
-0.707107 -0.000000 0.707107
-0.707107 -0.707107 -0.000000
0.707107 0.707107 -0.000000
-0.000000 -0.707107 0.707107
-0.000000 0.707107 -0.707107
0.707107 0.000000 -0.707107
-0.707107 -0.000000 0.707107
0.707107 0.707107 -0.000000
-0.707107 -0.707107 -0.000000
0.707107 0.707107 -0.000000
-0.707107 -0.707107 -0.000000
0.707107 0.707107 -0.000000
-0.707107 -0.707107 0.000000
1.414214 0.000000 0.000000
-1.414214 -0.000000 -0.000000
-0.707107 -0.000000 0.707107
0.707107 -0.000000 -0.707107
-0.000000 0.707107 0.707107
0.000000 -0.707107 -0.707107
0.707107 -0.707107 -0.000000
-0.707107 0.707107 -0.000000
0.707107 -0.000000 0.707107
-0.707107 -0.000000 -0.707107
-0.707107 0.000000 -0.707107
0.707107 -0.000000 0.707107
0.000000 -0.707107 -0.707107
-0.000000 0.707107 0.707107
-0.000000 0.707107 -0.707107
0.000000 -0.707107 0.707107
-0.707107 -0.000000 0.707107
0.707107 0.000000 -0.707107
0.707107 -0.707107 -0.000000
-0.707107 0.707107 0.000000
0.000000 -0.707107 0.707107
-0.707107 0.707107 0.000000
0.707107 0.000000 -0.707107
-0.707107 0.000000 -0.707107
-0.000000 0.707107 -0.707107
-0.000000 -0.707107 -0.707107
0.000000 -0.707107 0.707107
0.000000 0.707107 0.707107
0.000000 0.707107 0.707107
-0.707107 0.707107 0.000000
0.000000 -0.707107 -0.707107
0.000000 -0.707107 -0.707107
0.707107 -0.000000 0.707107
-0.707107 0.707107 0.000000
0.707107 -0.707107 -0.000000
0.707107 -0.707107 -0.000000
-0.707107 0.707107 0.000000
-0.707107 -0.707107 -0.000000
0.707107 0.707107 0.000000
0.000000 -0.707107 -0.707107
-0.707107 0.707107 -0.000000
-0.707107 -0.707107 -0.000000
0.707107 0.707107 -0.000000
0.707107 0.000000 0.707107
-0.707107 -0.000000 -0.707107
-0.000000 0.707107 0.707107
0.000000 -0.707107 -0.707107
0.000000 -0.707107 -0.707107
-0.000000 0.707107 0.707107
0.707107 -0.000000 0.707107
-0.707107 0.000000 -0.707107
-0.707107 -0.000000 0.707107
0.707107 0.000000 -0.707107
0.707107 -0.000000 0.707107
-0.707107 0.000000 -0.707107
0.707107 -0.707107 0.000000
-0.707107 0.707107 0.000000
0.707107 0.707107 0.000000
-0.707107 -0.707107 -0.000000
-0.707107 0.000000 0.707107
0.707107 -0.707107 -0.000000
0.707107 -0.707107 -0.000000
0.000000 0.707107 -0.707107
-0.707107 -0.000000 -0.707107
0.707107 -0.000000 0.707107
0.000000 0.707107 0.707107
0.000000 -0.707107 -0.707107
-0.707107 -0.707107 -0.000000
0.707107 0.000000 0.707107
0.000000 0.707107 -0.707107
0.707107 0.000000 -0.707107
-0.707107 -0.000000 0.707107
0.000000 0.707107 0.707107
-0.000000 -0.707107 -0.707107
-0.707107 0.707107 0.000000
0.707107 0.000000 -0.707107
0.000000 -0.707107 0.707107
-0.000000 -0.707107 -0.707107
-0.000000 0.707107 0.707107
0.707107 0.707107 0.000000
-0.707107 -0.707107 0.000000
-0.707107 0.000000 -0.707107
0.707107 0.000000 0.707107
-0.707107 -0.707107 0.000000
0.707107 0.707107 -0.000000
-0.000000 -0.707107 -0.707107
0.000000 0.707107 0.707107
0.707107 0.000000 -0.707107
-0.707107 -0.000000 0.707107
0.707107 0.707107 -0.000000
-0.707107 -0.707107 0.000000
0.000000 -0.707107 -0.707107
-0.000000 0.707107 0.707107
-0.707107 0.000000 -0.707107
0.707107 -0.000000 0.707107
0.707107 -0.707107 0.000000
-0.707107 0.707107 -0.000000
-0.707107 0.707107 -0.000000
0.707107 -0.707107 -0.000000
-0.707107 0.707107 0.000000
-0.707107 0.707107 0.000000
-0.707107 0.707107 0.000000
0.707107 -0.707107 -0.000000
0.707107 0.000000 -0.707107
-0.707107 0.000000 0.707107
0.000000 0.707107 0.707107
-0.000000 -0.707107 -0.707107
-0.000000 -0.707107 -0.707107
-0.707107 -0.707107 -0.000000
0.707107 0.707107 -0.000000
-0.000000 0.707107 0.707107
-0.000000 -0.707107 -0.707107
-0.707107 0.707107 -0.000000
0.707107 -0.707107 0.000000
0.707107 0.000000 0.707107
-0.707107 -0.000000 -0.707107
-0.000000 0.707107 -0.707107
0.000000 -0.707107 0.707107
0.707107 0.000000 0.707107
0.707107 0.000000 0.707107
-0.707107 -0.000000 -0.707107
0.707107 0.707107 0.000000
-0.707107 -0.707107 -0.000000
0.000000 0.707107 0.707107
0.000000 -0.707107 -0.707107
0.707107 0.000000 -0.707107
-0.707107 -0.000000 0.707107
0.707107 0.707107 0.000000
-0.707107 -0.707107 -0.000000
-0.707107 -0.000000 0.707107
0.707107 -0.707107 0.000000
-0.000000 0.707107 -0.707107
-0.707107 -0.707107 0.000000
0.707107 0.707107 -0.000000
0.707107 -0.707107 0.000000
-0.707107 0.707107 -0.000000
0.707107 0.000000 0.707107
-0.707107 0.000000 -0.707107
0.707107 -0.707107 0.000000
-0.707107 0.707107 0.000000
-0.707107 0.707107 0.000000
0.707107 -0.707107 0.000000
0.000000 0.707107 0.707107
0.707107 -0.000000 -0.707107
-0.707107 -0.707107 0.000000
-0.707107 -0.000000 0.707107
0.707107 0.000000 -0.707107
0.000000 0.707107 -0.707107
-0.000000 -0.707107 0.707107
0.707107 0.000000 0.707107
0.000000 -0.707107 0.707107
-0.000000 0.707107 -0.707107
-0.707107 -0.000000 -0.707107
-0.000000 -0.707107 -0.707107
0.000000 0.707107 0.707107
-0.000000 -0.707107 -0.707107
-0.000000 0.707107 0.707107
0.000000 0.707107 0.707107
-0.000000 -0.707107 -0.707107
0.707107 -0.707107 -0.000000
-0.707107 0.707107 0.000000
0.707107 -0.707107 -0.000000
0.000000 0.707107 -0.707107
-0.707107 0.000000 0.707107
-0.000000 -0.707107 -0.707107
-0.000000 0.707107 0.707107
0.000000 0.707107 -0.707107
-0.000000 -0.707107 0.707107
-0.000000 -0.707107 0.707107
-0.000000 0.707107 -0.707107
-0.707107 -0.707107 0.000000
0.707107 0.707107 -0.000000
0.707107 -0.000000 0.707107
-0.707107 0.000000 -0.707107
0.707107 0.000000 0.707107
-0.707107 -0.000000 -0.707107
0.000000 -0.707107 0.707107
-0.707107 0.707107 0.000000
0.707107 0.000000 -0.707107
0.000000 0.707107 0.707107
0.000000 -0.707107 -0.707107
0.707107 -0.000000 0.707107
-0.707107 0.000000 -0.707107
0.000000 -0.707107 0.707107
-0.000000 0.707107 -0.707107
0.707107 -0.707107 -0.000000
-0.707107 0.707107 0.000000
0.707107 0.000000 0.707107
0.000000 -0.707107 -0.707107
-0.707107 0.707107 0.000000
0.707107 -0.000000 0.707107
-0.707107 0.000000 -0.707107
-0.000000 0.707107 -0.707107
-0.000000 -0.707107 0.707107
0.707107 0.000000 0.707107
-0.707107 -0.000000 -0.707107
0.707107 -0.000000 -0.707107
-0.707107 0.000000 0.707107
0.707107 -0.707107 -0.000000
-0.707107 0.707107 0.000000
-0.707107 -0.707107 0.000000
0.707107 0.707107 -0.000000
0.707107 -0.707107 -0.000000
-0.707107 0.707107 0.000000
-0.707107 0.000000 0.707107
0.707107 -0.000000 -0.707107
0.000000 0.707107 -0.707107
-0.000000 -0.707107 0.707107
-0.707107 -0.000000 -0.707107
0.707107 -0.000000 0.707107
0.707107 -0.000000 0.707107
0.000000 -0.707107 -0.707107
-0.000000 0.707107 0.707107
-0.000000 0.707107 0.707107
0.000000 -0.707107 -0.707107
0.707107 0.707107 -0.000000
-0.707107 -0.707107 0.000000
0.707107 -0.000000 0.707107
-0.707107 0.000000 -0.707107
-0.707107 0.707107 0.000000
0.707107 -0.707107 -0.000000
0.000000 -0.707107 0.707107
0.000000 0.707107 -0.707107
0.707107 0.000000 -0.707107
-0.707107 -0.000000 0.707107
0.000000 -0.707107 0.707107
0.000000 0.707107 -0.707107
0.707107 0.000000 -0.707107
-0.707107 -0.000000 0.707107
-0.707107 0.707107 0.000000
0.707107 -0.000000 -0.707107
-0.000000 -0.707107 0.707107
-0.000000 0.707107 0.707107
-0.000000 -0.707107 -0.707107
-0.000000 -0.707107 -0.707107
0.000000 0.707107 0.707107
-0.000000 0.707107 0.707107
-0.000000 -0.707107 -0.707107
0.000000 0.707107 -0.707107
-0.000000 -0.707107 0.707107
0.000000 0.707107 0.707107
-0.000000 -0.707107 -0.707107
0.000000 0.707107 0.707107
-0.000000 -0.707107 -0.707107
-0.707107 -0.000000 -0.707107
0.707107 -0.000000 0.707107
-0.707107 -0.000000 0.707107
0.707107 0.707107 -0.000000
-0.000000 -0.707107 -0.707107
-0.000000 0.707107 0.707107
-0.000000 -0.707107 -0.707107
0.000000 0.707107 0.707107
0.707107 -0.707107 0.000000
-0.707107 0.000000 -0.707107
0.000000 -0.707107 0.707107
-0.707107 0.707107 0.000000
-0.000000 -0.707107 -0.707107
0.000000 0.707107 0.707107
-0.707107 -0.000000 0.707107
0.707107 0.000000 -0.707107
0.000000 0.707107 -0.707107
-0.000000 -0.707107 0.707107
-0.707107 -0.707107 0.000000
0.707107 0.707107 -0.000000
0.000000 0.707107 -0.707107
-0.000000 -0.707107 0.707107
0.707107 0.707107 -0.000000
-0.707107 -0.707107 -0.000000
-0.707107 -0.000000 -0.707107
0.707107 0.000000 0.707107
0.000000 -0.707107 0.707107
0.000000 0.707107 -0.707107
0.707107 0.707107 0.000000
-0.707107 -0.707107 -0.000000
0.707107 0.000000 -0.707107
-0.707107 -0.000000 0.707107
0.000000 0.707107 0.707107
-0.000000 -0.707107 -0.707107
0.000000 0.707107 0.707107
0.000000 -0.707107 -0.707107
-0.707107 0.707107 0.000000
0.707107 -0.707107 -0.000000
0.000000 -0.707107 -0.707107
-0.000000 0.707107 0.707107
0.000000 0.707107 0.707107
-0.000000 -0.707107 -0.707107
-0.000000 -0.707107 -0.707107
0.000000 0.707107 0.707107
-0.707107 -0.707107 0.000000
0.707107 0.707107 -0.000000
-0.707107 0.000000 -0.707107
0.707107 -0.000000 0.707107
0.000000 0.707107 0.707107
-0.000000 -0.707107 -0.707107
-0.000000 -0.707107 -0.707107
0.000000 0.707107 0.707107
-0.000000 0.707107 0.707107
-0.000000 -0.707107 -0.707107
-0.707107 0.000000 -0.707107
0.707107 0.000000 0.707107
-0.707107 0.707107 0.000000
0.707107 -0.707107 -0.000000
-0.707107 -0.707107 0.000000
0.707107 0.707107 -0.000000
0.707107 -0.707107 -0.000000
0.707107 -0.707107 -0.000000
-0.707107 0.707107 0.000000
0.707107 -0.707107 -0.000000
-0.000000 0.707107 -0.707107
-0.707107 0.000000 0.707107
-0.707107 -0.000000 -0.707107
0.707107 0.000000 0.707107
0.707107 0.707107 -0.000000
-0.707107 -0.707107 0.000000
-0.000000 0.707107 -0.707107
0.000000 -0.707107 0.707107
0.707107 0.000000 0.707107
-0.707107 -0.000000 -0.707107
-0.707107 -0.000000 0.707107
0.707107 0.000000 -0.707107
-0.000000 0.707107 0.707107
0.000000 -0.707107 -0.707107
0.707107 0.707107 0.000000
-0.707107 -0.707107 0.000000
-0.707107 0.000000 0.707107
0.707107 -0.000000 -0.707107
0.707107 -0.707107 -0.000000
-0.707107 0.707107 -0.000000
-0.707107 0.000000 -0.707107
0.000000 -0.707107 0.707107
0.707107 0.707107 -0.000000
-0.000000 0.707107 0.707107
0.000000 -0.707107 -0.707107
-0.000000 -0.707107 0.707107
0.000000 0.707107 -0.707107
-0.707107 0.707107 0.000000
0.707107 -0.000000 0.707107
0.000000 -0.707107 -0.707107
0.707107 0.000000 -0.707107
0.707107 -0.707107 0.000000
-0.707107 0.707107 -0.000000
0.707107 -0.000000 -0.707107
-0.707107 0.000000 0.707107
0.000000 -0.707107 -0.707107
-0.000000 0.707107 0.707107
0.707107 -0.707107 0.000000
-0.707107 0.707107 -0.000000
-0.707107 0.707107 0.000000
0.707107 -0.707107 -0.000000
0.707107 0.000000 0.707107
-0.707107 -0.000000 -0.707107
0.000000 0.707107 0.707107
-0.000000 -0.707107 -0.707107
-0.000000 0.707107 0.707107
-0.707107 -0.000000 -0.707107
0.707107 0.707107 -0.000000
-0.707107 -0.707107 -0.000000
-0.000000 -0.707107 0.707107
0.000000 0.707107 -0.707107
-0.000000 -0.707107 0.707107
0.000000 0.707107 0.707107
0.000000 0.707107 -0.707107
0.707107 0.707107 -0.000000
-0.707107 -0.707107 0.000000
0.707107 -0.707107 0.000000
-0.707107 0.707107 -0.000000
-0.000000 0.707107 -0.707107
0.000000 -0.707107 0.707107
0.000000 0.707107 -0.707107
-0.000000 -0.707107 0.707107
-0.707107 0.000000 -0.707107
0.707107 -0.000000 0.707107
-0.707107 -0.000000 0.707107
0.707107 0.000000 -0.707107
-0.000000 0.707107 -0.707107
0.000000 -0.707107 0.707107
0.707107 0.000000 0.707107
-0.707107 0.000000 -0.707107
-0.707107 0.707107 0.000000
0.707107 0.707107 0.000000
-0.707107 -0.707107 -0.000000
0.000000 -0.707107 -0.707107
-0.000000 0.707107 0.707107
-0.000000 0.707107 -0.707107
-0.707107 0.000000 0.707107
0.707107 -0.707107 0.000000
-0.000000 -0.707107 0.707107
-0.000000 0.707107 -0.707107
-0.000000 -0.707107 0.707107
0.000000 0.707107 -0.707107
0.707107 0.000000 0.707107
-0.707107 -0.000000 -0.707107
0.707107 0.707107 0.000000
-0.707107 -0.707107 -0.000000
-0.707107 -0.707107 0.000000
0.707107 0.707107 0.000000
-0.707107 -0.707107 0.000000
0.707107 0.707107 -0.000000
-0.000000 -0.707107 0.707107
-0.000000 0.707107 -0.707107
0.707107 0.707107 0.000000
-0.707107 -0.707107 -0.000000
-0.707107 -0.000000 -0.707107
0.707107 -0.000000 0.707107
-0.707107 -0.707107 0.000000
0.707107 0.707107 -0.000000
-0.707107 -0.707107 -0.000000
0.707107 0.707107 -0.000000
-0.707107 -0.000000 -0.707107
0.707107 0.000000 0.707107
0.707107 -0.707107 0.000000
-0.707107 0.707107 -0.000000
0.707107 0.000000 0.707107
-0.707107 0.000000 -0.707107
0.707107 0.707107 -0.000000
-0.707107 -0.707107 0.000000
0.000000 0.707107 -0.707107
-0.000000 -0.707107 0.707107
-0.707107 -0.707107 0.000000
0.707107 0.707107 -0.000000
0.000000 0.707107 0.707107
-0.000000 -0.707107 -0.707107
-0.000000 0.707107 0.707107
0.000000 -0.707107 -0.707107
-0.000000 -0.707107 0.707107
-0.000000 0.707107 -0.707107
0.000000 -0.707107 -0.707107
0.000000 0.707107 0.707107
0.707107 -0.707107 0.000000
-0.707107 0.707107 -0.000000
0.707107 0.000000 0.707107
0.707107 0.000000 0.707107
-0.707107 -0.000000 -0.707107
0.000000 0.707107 0.707107
-0.000000 -0.707107 -0.707107
0.707107 -0.000000 0.707107
-0.707107 0.000000 -0.707107
-0.000000 -0.707107 0.707107
0.000000 0.707107 -0.707107
-0.000000 0.707107 0.707107
0.000000 -0.707107 -0.707107
-0.707107 -0.707107 0.000000
0.707107 0.707107 -0.000000
0.707107 -0.000000 0.707107
-0.707107 0.000000 -0.707107
0.707107 0.000000 0.707107
-0.707107 -0.000000 -0.707107
0.707107 0.707107 0.000000
-0.707107 -0.707107 -0.000000
-0.707107 0.000000 -0.707107
0.707107 -0.000000 0.707107
-0.707107 -0.707107 -0.000000
-0.000000 0.707107 0.707107
0.707107 0.000000 -0.707107
-0.000000 0.707107 -0.707107
0.000000 -0.707107 0.707107
0.000000 0.707107 -0.707107
0.000000 -0.707107 0.707107
0.707107 -0.000000 0.707107