# vtk DataFile Version 3.0
Configuration exported from OpenDiS
ASCII
DATASET UNSTRUCTURED_GRID
POINTS 44318 FLOAT
-29412.000000 -29412.000000 -29412.000000
29412.000000 -29412.000000 -29412.000000
-29412.000000 29412.000000 -29412.000000
-29412.000000 -29412.000000 29412.000000
29412.000000 29412.000000 -29412.000000
29412.000000 -29412.000000 29412.000000
-29412.000000 29412.000000 29412.000000
29412.000000 29412.000000 29412.000000
-23625.201356 -9429.073942 -19188.336027
-24607.532826 -9429.073942 -20178.755990
-23625.201356 -9429.073942 -19188.336027
-23128.340004 -9429.073942 -18710.315198
-10306.820429 17828.578926 15272.001269
-9490.068325 18321.245186 14947.915425
-10306.820429 17828.578926 15272.001269
-11029.171104 17386.895910 15552.668927
20293.657720 9338.128876 25034.992210
20293.657720 8603.047532 24303.387245
20293.657720 9338.128876 25034.992210
20293.657720 9927.344869 25612.705565
-8078.332755 -1249.273562 -9723.868205
-7556.653115 -2337.149594 -10290.064597
-8078.332755 -1249.273562 -9723.868205
-8851.775461 -56.057046 -9304.094396
8088.944863 -2057.406011 -28195.398771
9002.830017 -2944.822151 -28195.398712
8088.944863 -2057.406011 -28195.398771
7039.868103 -1008.336109 -28195.398771
23290.171585 -28831.022425 21589.359693
22709.194005 -29412.000005 21589.359693
22709.194005 29411.999983 21589.359693
22578.999545 29281.805535 21589.359693
23290.171585 -28831.022425 21589.359693
24029.602980 -28091.591030 21589.359693
-24554.907314 11233.526211 22109.294037
-24554.907314 12019.846231 22852.704981
-24554.907314 11233.526211 22109.294037
-24554.907314 10578.364273 21473.153676
-27001.852414 -24958.874217 -15258.528848
-27821.991427 -25408.629676 -15628.912402
-27001.852414 -24958.874217 -15258.528848
-26181.713401 -24509.118758 -14888.145294
9471.914566 7618.052311 -28928.804508
8713.143821 8376.986263 -28928.804508
9471.914566 7618.052311 -28928.804508
10053.335413 7042.321568 -28928.804508
22421.095514 1703.783027 2836.085647
22477.804862 1417.173424 2492.766695
22421.095514 1703.783027 2836.085647
22623.129891 2695.968254 3626.236496
-14480.793129 21596.038911 5182.014054
-14408.188543 22544.220860 4161.153793
-14480.793129 21596.038911 5182.014054
-14561.033272 20896.751914 5961.614921
12087.742619 15129.045692 9727.665874
11950.435013 14394.783655 10324.620305
12087.742619 15129.045692 9727.665874
12383.402835 16014.339966 9138.031816
-14663.500264 27571.564806 3177.949591
-14228.235754 26685.843750 2727.493046
-14663.500264 27571.564806 3177.949591
-15232.879989 28723.347835 3760.352896
25926.578632 -16734.336068 -21918.605102
25926.578632 -17116.660178 -22303.338460
25926.578632 -16734.336068 -21918.605102
25926.578632 -16415.527573 -21602.205855
21054.946524 10512.656786 -12887.766682
20173.766486 10512.656786 -13690.524954
21054.946524 10512.656786 -12887.766682
21807.866230 10512.656786 -12224.642818
-26413.325583 -21549.295390 5430.895443
-26413.325583 -21458.270127 5361.221186
-26413.325583 -21549.295390 5430.895443
-26876.124861 -21822.544385 6166.943717
-26413.325583 -21549.295390 5430.895443
-26133.711861 -21486.374002 5214.203108
20522.933794 27789.265955 29052.488764
20945.809927 27716.736277 28702.142309
20522.933794 27789.265955 29052.488764
20266.599345 27211.207555 28218.095915
20522.933794 27789.265955 29052.488764
19423.779249 29019.071647 29183.139911
13386.382430 15664.191605 -611.609796
13386.382430 16389.728146 -1337.146337
13386.382430 15664.191605 -611.609796
13387.302255 14768.407412 285.094222
18442.964763 9168.537322 16545.631923
18924.280397 9246.479559 17104.891309
18442.964763 9168.537322 16545.631923
17997.338592 9141.654641 16073.122604
5958.193298 -15415.809069 26706.853458
6985.040007 -16012.673335 26276.871015
5958.193298 -15415.809069 26706.853458
5152.683615 -14754.184174 26850.738246
-26781.842885 28009.952645 21595.768800
-27525.812530 28036.203456 20878.049966
-26781.842885 28009.952645 21595.768800
-25964.854955 27887.329698 22290.133784
15345.672678 -14125.312692 15071.914485
16064.073816 -13753.107650 13981.308304
15345.672678 -14125.312692 15071.914485
16065.083863 -14844.723878 15071.914485
15345.672678 -14125.312692 15071.914485
14774.381703 -13533.555303 15092.380900
-17546.195735 27644.921017 23950.279783
-17015.953911 26707.533823 23543.134412
-17546.195735 27644.921017 23950.279783
-18109.201608 28440.891735 24183.244629
20140.286369 11704.899781 25261.469573
19503.812584 10858.433125 25471.462443
20140.286369 11704.899781 25261.469573
20712.775409 12546.174429 24992.683964
11397.134460 -28078.212095 7915.991604
11950.465855 -28877.789227 7669.745868
11397.134460 -28078.212095 7915.991604
10669.902197 -27044.708554 8222.262883
10214.040855 18871.415986 11841.957424
11108.839706 18259.321175 11559.253383
10214.040855 18871.415986 11841.957424
8965.904501 19595.530651 12365.979112
-22871.499346 17134.471730 -11246.010213
-22410.714307 17967.879650 -10873.387333
-22871.499346 17134.471730 -11246.010213
-23591.310910 16298.301168 -11362.369212
27241.561580 20058.029077 -6371.886751
27241.593926 19349.619755 -5662.961340
27241.561580 20058.029077 -6371.886751
27241.545408 20819.407651 -7133.523350
2260.833473 4801.289355 -29225.989494
3598.061411 4801.289356 -27888.761556
2260.833473 4801.289355 -29225.989494
2038.287394 4421.591771 -28623.745830
24742.298138 -14758.136170 6460.167605
24913.441804 -15116.603713 5930.556396
24742.298138 -14758.136170 6460.167605
25280.579783 -13458.340857 7221.681315
24742.298138 -14758.136170 6460.167605
23745.792441 -15254.285950 6960.523522
2457.697262 -28491.576182 -27564.861889
1092.911615 -27772.958887 -28211.030240
2457.697262 -28491.576182 -27564.861889
3563.429259 -29412.000005 -27379.553715
3563.429259 29411.999983 -27379.553715
3809.647051 29207.045520 -27338.290398
23214.723207 14371.707746 -15667.614292
22349.862843 14041.393602 -15133.169794
23214.723207 14371.707746 -15667.614292
24100.186400 14701.869998 -16222.864372
-1916.388422 14120.697058 -22022.622124
-2299.051073 14009.604197 -22036.773335
-1916.388422 14120.697058 -22022.622124
-734.947994 13316.054892 -21645.823862
-3607.696538 -23761.702646 -13517.825058
-3767.277806 -23458.936794 -13374.719540
-3607.696538 -23761.702646 -13517.825058
-3584.657301 -23767.275066 -13500.361881
-3607.696538 -23761.702646 -13517.825058
-4043.985163 -23238.545488 -14477.270840
28520.960397 11638.511938 3326.545496
29411.999994 11385.873805 4470.223226
-29411.999994 11385.873805 4470.223226
-29371.835559 11374.485904 4521.775574
28520.960397 11638.511938 3326.545496
27891.405297 12051.191447 2284.310887
-13280.645264 11197.811237 -22846.621940
-14672.339961 12588.596343 -22846.621940
-13280.645264 11197.811237 -22846.621940
-12524.958836 10158.045156 -22562.542288
-13280.645264 11197.811237 -22846.621940
-13370.714338 10871.144025 -22610.023802
-2842.640355 25232.039138 1562.006062
-2905.991867 26068.692438 2462.010875
-2842.640355 25232.039138 1562.006062
-2874.442663 24629.002833 990.772066
8523.283076 -6528.059477 -2203.764962
8167.717332 -7225.943705 -2546.081763
8523.283076 -6528.059477 -2203.764962
8899.224132 -5769.913480 -1821.560863
-7294.616550 7443.643263 20354.791136
-6667.981148 8165.535611 19006.263387
-7294.616550 7443.643263 20354.791136
-7994.289396 6991.735162 21506.372079
-7200.443840 -6186.513643 -14229.480848
-7743.144479 -5567.602672 -15391.092457
-7200.443840 -6186.513643 -14229.480848
-6991.705705 -6409.644381 -13797.611974
-8984.012023 -4045.477159 -25818.363172
-8465.903352 -4488.144341 -25893.804661
-8984.012023 -4045.477159 -25818.363172
-9867.110002 -3231.780472 -25748.961881
-11732.417871 -3960.091892 26499.005974
-11301.973121 -3252.374370 26776.278746
-11732.417871 -3960.091892 26499.005974
-12401.335870 -4617.583476 26510.432389
17996.642507 -27272.786388 26448.790710
18992.697818 -27715.655222 27001.977189
17996.642507 -27272.786388 26448.790710
17919.314335 -27272.786388 26371.462538
17996.642507 -27272.786388 26448.790710
18035.728332 -27199.408445 26414.498592
22430.100226 21353.644762 430.381618
21396.305228 22376.947854 430.381618
22430.100226 21353.644762 430.381618
22979.194168 20799.201464 430.381618
-7841.378452 1673.885058 -25755.338356
-8066.482049 2535.327694 -24668.792124
-7841.378452 1673.885058 -25755.338356
-7797.764838 909.276191 -26563.560837
-18684.802121 -8005.304864 -12157.751273
-19401.804356 -8005.304864 -11440.748929
-18684.802121 -8005.304864 -12157.751273
-17946.159485 -8005.304864 -12896.394021
-3476.523522 24671.257472 1635.107563
-3784.767768 24938.620145 2210.714482
-3476.523522 24671.257472 1635.107563
-3145.492688 24248.713492 881.532750
-27644.338371 -16986.480838 -29193.699847
-26322.637908 -16986.480838 -27830.578265
-27644.338371 -16986.480838 -29193.699847
-27871.924718 -16986.482573 -29412.000002
-27871.924718 -16986.482573 29411.999986
-28314.674403 -16986.485948 28987.315802
-4103.071789 -19383.716203 25607.097058
-3695.070356 -20054.113057 25344.701638
-4103.071789 -19383.716203 25607.097058
-4735.125033 -18315.966888 26042.793128
12318.125121 -4775.118847 1698.461848
11711.832206 -5101.999280 765.288501
12318.125121 -4775.118847 1698.461848
12992.955549 -4239.225205 2909.185918
1078.684099 -13616.580108 28445.604885
488.695779 -13365.463349 28106.733324
1078.684099 -13616.580108 28445.604885
1806.373601 -13672.714807 29117.159687
27854.113432 -781.789473 5597.999471
27430.349954 -51.885754 5904.139713
27854.113432 -781.789473 5597.999471
28135.562110 -1440.494516 5220.743107
-22176.136332 302.023468 17690.176151
-22646.001808 377.011198 17295.298405
-22176.136332 302.023468 17690.176151
-21261.085887 -16.204575 18286.998584
14656.685333 -24977.559955 26418.694637
14259.141461 -24349.148002 25392.738812
14656.685333 -24977.559955 26418.694637
14891.900970 -25310.697051 26987.047370
-28829.529595 -25618.997975 -14884.238554
-27803.511682 -26389.919833 -14629.142500
-28829.529595 -25618.997975 -14884.238554
-29412.000005 -25101.160324 -14948.871314
[...]
CELL_DATA 22156
VECTORS Burgers FLOAT
0.000000 0.000000 0.000000
-0.707107 0.000000 0.707107
0.707107 -0.000000 -0.707107
-0.707107 -0.000000 0.707107
0.707107 0.000000 -0.707107
0.000000 -0.707107 0.707107
0.000000 0.707107 -0.707107
-0.000000 0.707107 0.707107
0.000000 -0.707107 -0.707107
0.707107 0.707107 0.000000
-0.707107 -0.707107 -0.000000
-0.707107 0.707107 -0.000000
-0.707107 0.707107 -0.000000
0.707107 -0.707107 0.000000
0.000000 0.707107 -0.707107
-0.000000 -0.707107 0.707107
0.000000 -0.707107 0.707107
-0.000000 0.707107 -0.707107
0.707107 0.707107 0.000000
-0.707107 -0.707107 -0.000000
0.707107 -0.000000 -0.707107
-0.707107 0.000000 0.707107
-0.707107 0.707107 0.000000
0.707107 -0.707107 -0.000000
-0.707107 -0.000000 -0.707107
0.707107 0.000000 0.707107
-0.707107 0.707107 0.000000
0.707107 -0.707107 -0.000000
0.000000 0.707107 -0.707107
-0.000000 -0.707107 0.707107
0.707107 0.000000 -0.707107
-0.707107 -0.000000 0.707107
0.000000 1.414214 0.000000
0.000000 -0.707107 0.707107
0.000000 -0.707107 -0.707107
-0.707107 0.707107 0.000000
0.707107 0.000000 0.707107
-0.000000 -0.707107 -0.707107
0.000000 0.707107 0.707107
-0.000000 -0.707107 -0.707107
0.000000 -0.707107 -0.707107
-0.000000 0.707107 0.707107
0.707107 0.000000 -0.707107
-0.707107 -0.000000 0.707107
-0.707107 0.000000 -0.707107
0.707107 -0.000000 0.707107
-0.707107 0.000000 0.707107
0.707107 0.707107 0.000000
-0.000000 -0.707107 -0.707107
-0.707107 0.707107 0.000000
0.707107 -0.707107 -0.000000
-0.000000 0.707107 -0.707107
0.000000 -0.707107 0.707107
-0.707107 0.707107 0.000000
0.707107 -0.707107 -0.000000
-0.707107 0.000000 0.707107
0.707107 -0.000000 -0.707107
0.707107 0.000000 -0.707107
-0.707107 -0.000000 0.707107
0.000000 -0.707107 -0.707107
-0.000000 0.707107 0.707107
-0.707107 0.000000 0.707107
0.707107 -0.000000 -0.707107
-0.707107 -0.000000 0.707107
0.000000 -0.707107 -0.707107
0.707107 0.707107 -0.000000
-0.707107 0.000000 -0.707107
0.707107 -0.000000 0.707107
0.707107 -0.000000 0.707107
0.707107 0.707107 0.000000
-0.707107 -0.707107 -0.000000
-0.000000 -0.707107 -0.707107
0.000000 0.707107 0.707107
0.000000 -0.707107 -0.707107
-0.707107 0.707107 0.000000
0.707107 0.000000 0.707107
-0.707107 -0.000000 -0.707107
-0.707107 -0.000000 -0.707107
0.707107 0.000000 0.707107
-0.707107 -0.707107 -0.000000
0.000000 0.707107 -0.707107
0.707107 -0.000000 0.707107
-0.707107 -0.707107 -0.000000
0.707107 0.707107 0.000000
0.707107 0.707107 0.000000
-0.707107 -0.707107 -0.000000
0.707107 -0.000000 -0.707107
-0.707107 0.000000 0.707107
0.707107 -0.000000 0.707107
-0.707107 0.000000 -0.707107
0.000000 0.707107 -0.707107
-0.000000 -0.707107 0.707107
-0.000000 -0.707107 -0.707107
0.000000 0.707107 0.707107
-0.707107 -0.000000 -0.707107
0.707107 0.707107 0.000000
-0.000000 -0.707107 0.707107
0.000000 -1.414214 0.000000
-0.000000 1.414214 -0.000000
0.707107 -0.000000 -0.707107
-0.707107 0.000000 0.707107
0.707107 0.000000 0.707107
-0.707107 -0.000000 -0.707107
0.000000 -0.707107 -0.707107
-0.000000 0.707107 0.707107
-0.707107 -0.000000 0.707107
0.707107 0.000000 -0.707107
0.707107 0.000000 -0.707107
-0.707107 0.707107 -0.000000
0.707107 -0.707107 0.000000
0.000000 0.707107 0.707107
-0.000000 -0.707107 -0.707107
-0.000000 0.707107 0.707107
-0.000000 -0.707107 -0.707107
0.707107 -0.707107 0.000000
-0.707107 0.707107 -0.000000
-0.707107 -0.000000 -0.707107
0.707107 0.000000 0.707107
0.000000 -0.707107 0.707107
-0.000000 0.707107 -0.707107
-0.707107 -0.000000 -0.707107
0.707107 0.000000 0.707107
0.707107 0.000000 0.707107
0.000000 0.707107 -0.707107
-0.000000 -0.707107 0.707107
-0.707107 0.707107 0.000000
0.707107 -0.707107 -0.000000
-0.707107 -0.707107 0.000000
0.707107 0.707107 -0.000000
0.707107 -0.707107 0.000000
-0.707107 -0.000000 -0.707107
-0.000000 0.707107 0.707107
0.000000 -0.707107 0.707107
-0.000000 0.707107 -0.707107
-0.000000 0.707107 -0.707107
0.000000 -0.707107 0.707107
-0.000000 0.707107 -0.707107
0.000000 0.707107 0.707107
-0.000000 -0.707107 -0.707107
-0.707107 -0.707107 0.000000
0.707107 0.707107 -0.000000
0.000000 0.707107 0.707107
-0.000000 -0.707107 -0.707107
-0.707107 -0.707107 0.000000
0.707107 0.707107 0.000000
0.707107 0.707107 0.000000
0.707107 0.000000 0.707107
-0.707107 -0.000000 -0.707107
-0.707107 -0.000000 -0.707107
0.707107 0.000000 0.707107
0.707107 0.707107 0.000000
-0.707107 -0.707107 -0.000000
0.707107 0.000000 0.707107
-0.707107 -0.000000 -0.707107
0.707107 -0.000000 0.707107
-0.707107 0.000000 -0.707107
-0.707107 0.000000 0.707107
0.707107 -0.000000 -0.707107
0.000000 -0.707107 -0.707107
-0.000000 0.707107 0.707107
0.707107 -0.000000 -0.707107
-0.707107 0.000000 0.707107
0.000000 0.707107 0.707107
-0.000000 -0.707107 -0.707107
0.000000 0.707107 -0.707107
-0.000000 -0.707107 0.707107
-0.707107 0.707107 -0.000000
0.707107 -0.707107 0.000000
-0.707107 0.707107 0.000000
0.707107 -0.707107 -0.000000
-0.000000 -0.707107 -0.707107
0.000000 0.707107 0.707107
-0.707107 -0.707107 -0.000000
0.707107 0.707107 0.000000
-0.707107 0.000000 -0.707107
-0.000000 0.707107 0.707107
0.707107 -0.707107 0.000000
-0.707107 0.000000 -0.707107
-0.000000 0.707107 0.707107
0.707107 -0.707107 0.000000
-0.707107 -0.707107 -0.000000
0.707107 0.707107 0.000000
0.707107 0.707107 0.000000
-0.707107 -0.707107 -0.000000
0.707107 -0.707107 0.000000
-0.707107 0.707107 -0.000000
-0.000000 -0.707107 -0.707107
0.000000 0.707107 0.707107
0.000000 0.707107 0.707107
-0.000000 -0.707107 -0.707107
-0.707107 -0.000000 0.707107
0.707107 0.000000 -0.707107
0.707107 0.707107 0.000000
-0.707107 -0.707107 -0.000000
0.707107 0.707107 -0.000000
-0.707107 -0.707107 0.000000
-0.707107 0.000000 -0.707107
0.707107 -0.000000 0.707107
-0.707107 -0.000000 0.707107
0.707107 0.000000 -0.707107
0.000000 -0.707107 0.707107
-0.000000 0.707107 -0.707107
0.707107 -0.000000 0.707107
-0.707107 -0.707107 -0.000000
-0.000000 0.707107 -0.707107
-0.707107 0.000000 0.707107
0.707107 -0.000000 -0.707107
-0.707107 0.000000 -0.707107
0.707107 -0.000000 0.707107
0.000000 0.707107 -0.707107
-0.000000 -0.707107 0.707107
0.000000 -0.707107 -0.707107
-0.000000 -0.000000 1.414214
0.000000 0.707107 -0.707107
0.000000 0.707107 -0.707107
-0.000000 0.707107 -0.707107
0.000000 -0.707107 0.707107
0.707107 0.000000 -0.707107
-0.707107 -0.000000 0.707107
0.707107 0.000000 -0.707107
-0.707107 -0.000000 0.707107
-0.000000 -0.707107 0.707107
-0.707107 0.000000 -0.707107
0.707107 0.707107 0.000000
0.000000 0.707107 0.707107
-0.000000 -0.707107 -0.707107
-0.707107 -0.000000 0.707107
-0.000000 -0.707107 -0.707107
0.707107 0.707107 0.000000
0.707107 0.000000 0.707107
-0.707107 -0.707107 -0.000000
0.000000 0.707107 -0.707107
0.000000 0.707107 -0.707107
-0.707107 -0.707107 -0.000000
0.707107 0.000000 0.707107
0.707107 -0.000000 -0.707107
-0.707107 0.000000 0.707107
0.707107 -0.707107 0.000000
-0.707107 0.707107 -0.000000
-0.707107 -0.000000 -0.707107
0.707107 -0.000000 0.707107
0.707107 -0.707107 0.000000
-0.707107 0.707107 -0.000000
0.707107 0.707107 0.000000
-0.000000 -0.707107 0.707107
-0.707107 0.000000 -0.707107
-0.707107 -0.000000 -0.707107
0.707107 0.000000 0.707107
-0.707107 0.707107 0.000000
0.707107 -0.707107 -0.000000
0.707107 0.000000 -0.707107
-0.707107 -0.000000 0.707107
-0.000000 -0.707107 0.707107
-0.000000 -0.000000 -1.414214
0.000000 0.707107 0.707107
-0.707107 0.000000 0.707107
0.707107 -0.000000 -0.707107
0.707107 0.707107 0.000000
-0.707107 -0.707107 -0.000000
-0.707107 0.000000 -0.707107
0.707107 -0.000000 0.707107
-0.707107 -0.707107 0.000000
0.707107 0.707107 0.000000
0.707107 0.707107 0.000000
-0.707107 -0.707107 -0.000000
-0.707107 -0.707107 -0.000000
-0.707107 0.000000 0.707107
0.707107 -0.000000 -0.707107
-0.707107 0.707107 0.000000
0.707107 -0.707107 -0.000000
-0.707107 -0.000000 0.707107
0.707107 0.000000 -0.707107
0.000000 -0.707107 -0.707107
-0.000000 0.707107 0.707107
-0.000000 0.707107 0.707107
0.707107 0.000000 0.707107
-0.707107 0.000000 -0.707107
0.707107 0.707107 0.000000
-0.707107 -0.707107 -0.000000
0.000000 -0.707107 -0.707107
-0.000000 0.707107 0.707107
-0.707107 -0.000000 -0.707107
0.707107 0.000000 0.707107
-0.000000 0.707107 0.707107
0.000000 -0.707107 -0.707107
0.707107 -0.707107 -0.000000
-0.707107 0.707107 -0.000000
0.707107 0.000000 -0.707107
-0.707107 -0.000000 0.707107
-0.000000 0.707107 0.707107
0.000000 -0.707107 -0.707107
0.000000 0.707107 0.707107
0.000000 0.707107 0.707107
0.707107 -0.000000 -0.707107
-0.707107 -0.707107 0.000000
0.000000 0.707107 0.707107
-0.000000 -0.707107 -0.707107
-0.707107 0.000000 0.707107
0.707107 -0.000000 -0.707107
-0.000000 -0.707107 0.707107
0.707107 0.000000 -0.707107
-0.707107 0.707107 -0.000000
0.707107 0.000000 0.707107
-0.707107 -0.000000 -0.707107
0.707107 0.000000 -0.707107
-0.707107 0.000000 0.707107
-0.707107 0.000000 0.707107
0.707107 0.707107 0.000000
-0.707107 -0.707107 -0.000000
-0.000000 0.707107 -0.707107
0.000000 -0.707107 0.707107
0.000000 -0.707107 -0.707107
-0.000000 0.707107 0.707107
-0.707107 0.707107 0.000000
0.707107 -0.707107 -0.000000
-0.707107 0.000000 -0.707107
0.707107 -0.000000 0.707107
0.707107 -0.000000 0.707107
0.707107 -0.000000 0.707107
-0.707107 0.000000 -0.707107
0.707107 0.000000 0.707107
-0.707107 -0.000000 -0.707107
-0.000000 0.707107 0.707107
0.000000 -0.707107 -0.707107
0.707107 0.000000 -0.707107
0.000000 -0.707107 -0.707107
-1.414214 0.707107 0.707107
0.707107 -0.000000 0.707107
0.000000 -0.707107 0.707107
-0.000000 0.707107 -0.707107
-0.000000 -0.707107 0.707107
0.000000 0.707107 -0.707107
0.707107 -0.707107 0.000000
-0.707107 0.707107 -0.000000
-0.707107 0.707107 0.000000
0.707107 -0.707107 -0.000000
0.000000 -0.707107 -0.707107
-0.000000 0.707107 0.707107
-0.000000 0.707107 -0.707107
0.000000 -0.707107 0.707107
0.707107 -0.000000 -0.707107
-0.707107 0.000000 0.707107
0.000000 0.707107 -0.707107
-0.000000 -0.707107 0.707107
-0.707107 0.000000 0.707107
0.707107 0.000000 -0.707107
0.000000 0.707107 -0.707107
-0.000000 -0.707107 0.707107
-0.707107 0.707107 0.000000
-0.000000 -0.707107 -0.707107
0.707107 -0.000000 0.707107
0.000000 -0.707107 0.707107
-0.000000 0.707107 -0.707107
-0.707107 -0.707107 0.000000
-0.000000 0.707107 -0.707107
0.707107 -0.000000 0.707107
0.000000 0.707107 0.707107
-0.000000 -0.707107 -0.707107
0.000000 0.707107 0.707107
-0.000000 -0.707107 -0.707107
-0.707107 -0.707107 -0.000000
0.707107 0.707107 0.000000
-0.707107 0.707107 0.000000
-0.707107 -0.000000 -0.707107
1.414214 -0.707107 0.707107
0.707107 0.000000 -0.707107
-0.707107 -0.000000 0.707107
-0.707107 0.707107 -0.000000
0.707107 -0.707107 0.000000
-0.000000 -0.707107 -0.707107
0.000000 0.707107 0.707107
-0.707107 -0.707107 -0.000000
0.707107 0.707107 0.000000
0.000000 -0.707107 0.707107
-0.000000 0.707107 -0.707107
0.707107 0.707107 -0.000000
0.000000 -0.707107 -0.707107
-0.707107 0.000000 0.707107
-0.707107 0.000000 0.707107
0.707107 -0.000000 -0.707107
0.000000 0.707107 -0.707107
-0.000000 -0.707107 0.707107
-0.000000 0.707107 0.707107
-0.000000 0.707107 0.707107
0.000000 -0.707107 -0.707107
0.000000 -0.707107 -0.707107
0.707107 0.000000 0.707107
-0.707107 0.707107 -0.000000
0.000000 0.707107 0.707107
-0.000000 -0.707107 -0.707107
-0.707107 0.000000 0.707107
0.707107 -0.000000 -0.707107
0.000000 -0.707107 0.707107
-0.000000 0.707107 -0.707107
0.707107 -0.707107 0.000000
-0.707107 0.707107 0.000000
0.707107 -0.000000 0.707107
-0.707107 0.000000 -0.707107
0.707107 -0.000000 -0.707107
-0.707107 0.000000 0.707107
1.414214 0.000000 0.000000
-1.414214 -0.000000 -0.000000
0.000000 -0.707107 0.707107
-0.000000 0.707107 -0.707107
-0.707107 0.707107 0.000000
0.707107 -0.000000 0.707107
-0.000000 -0.707107 -0.707107
-0.000000 -0.707107 -0.707107
0.707107 -0.000000 0.707107
0.000000 0.707107 -0.707107
-0.707107 0.000000 0.707107
0.707107 0.707107 0.000000
-0.707107 -0.707107 -0.000000
0.000000 0.707107 0.707107
-0.000000 -0.707107 -0.707107
0.707107 -0.707107 0.000000
-0.707107 0.707107 -0.000000
0.000000 0.707107 0.707107
0.707107 0.000000 -0.707107
-0.707107 -0.707107 -0.000000
-0.707107 0.000000 -0.707107
0.707107 -0.000000 0.707107
-0.707107 -0.000000 -0.707107
0.707107 0.000000 0.707107
0.000000 -0.707107 0.707107
-0.000000 0.707107 -0.707107
-0.000000 0.707107 0.707107
-0.707107 0.707107 -0.000000
0.000000 -0.707107 0.707107
0.707107 0.000000 -0.707107
-0.000000 0.707107 0.707107
0.000000 -0.707107 -0.707107
-0.000000 -0.707107 -0.707107
0.000000 0.707107 0.707107
0.707107 0.707107 -0.000000
-0.707107 -0.707107 0.000000
-0.707107 0.707107 0.000000
0.707107 -0.707107 -0.000000
-0.707107 0.000000 0.707107
0.707107 -0.000000 -0.707107
-0.707107 0.707107 0.000000
0.707107 -0.707107 0.000000
0.707107 -0.000000 -0.707107
-0.707107 0.000000 0.707107
-0.707107 -0.000000 0.707107
0.707107 -0.000000 -0.707107
-0.000000 0.707107 0.707107
0.000000 -0.707107 -0.707107
0.000000 0.707107 0.707107
-0.000000 -0.707107 -0.707107
0.707107 0.000000 0.707107
-0.707107 -0.000000 -0.707107
-0.000000 -0.707107 0.707107
0.000000 0.707107 -0.707107
-0.707107 -0.000000 -0.707107
0.707107 0.000000 0.707107
-0.707107 -0.707107 0.000000
0.707107 0.707107 -0.000000
0.000000 0.707107 -0.707107
-0.000000 -0.707107 0.707107
0.707107 -0.000000 0.707107
-0.707107 -0.000000 -0.707107
-0.707107 0.000000 -0.707107
-0.707107 0.000000 -0.707107
0.707107 -0.000000 0.707107
0.000000 0.707107 -0.707107
-0.000000 -0.707107 0.707107
-0.707107 -0.707107 0.000000
0.707107 -0.000000 0.707107
-0.000000 0.707107 -0.707107
-0.707107 0.000000 0.707107
0.707107 -0.000000 -0.707107
-0.707107 0.000000 -0.707107
0.707107 -0.000000 -0.707107
0.000000 0.000000 1.414214
0.000000 -0.707107 -0.707107
-0.000000 0.707107 0.707107
-0.707107 0.707107 0.000000
0.707107 -0.707107 -0.000000
-0.707107 -0.707107 -0.000000
0.707107 0.707107 0.000000
0.000000 0.707107 0.707107
0.707107 0.000000 0.707107
-0.707107 -0.000000 -0.707107
0.707107 -0.707107 0.000000
-0.707107 0.707107 -0.000000
-0.707107 0.000000 0.707107
0.707107 -0.000000 -0.707107
-0.000000 -0.707107 -0.707107
0.000000 0.707107 0.707107
0.000000 0.707107 -0.707107
-0.707107 -0.000000 0.707107
0.707107 -0.707107 0.000000
-0.707107 -0.707107 0.000000
0.707107 0.707107 -0.000000
-0.707107 0.707107 -0.000000
0.000000 0.707107 -0.707107
-0.000000 -0.707107 0.707107
0.707107 0.707107 0.000000
-0.707107 -0.707107 -0.000000
0.000000 0.707107 0.707107
-0.000000 -0.707107 -0.707107
0.000000 -0.707107 -0.707107
-0.000000 0.707107 0.707107
0.707107 -0.707107 -0.000000
-0.707107 0.707107 -0.000000
0.000000 0.707107 0.707107
-0.000000 -0.707107 -0.707107
-0.707107 0.707107 0.000000
0.000000 -0.707107 -0.707107
0.707107 0.000000 0.707107
0.000000 0.707107 -0.707107
-0.000000 -0.707107 0.707107
0.000000 -0.707107 -0.707107
0.707107 0.000000 0.707107
-0.707107 0.707107 -0.000000
-0.707107 0.707107 0.000000
0.707107 -0.707107 -0.000000
0.707107 -0.707107 0.000000
-0.707107 0.707107 -0.000000
-0.707107 -0.000000 -0.707107
0.707107 0.000000 0.707107
0.707107 -0.000000 0.707107
-0.707107 0.000000 -0.707107
0.000000 0.707107 -0.707107
-0.000000 -0.707107 0.707107
0.707107 -0.707107 0.000000
-0.707107 0.707107 -0.000000
-0.000000 -0.707107 0.707107
0.000000 0.707107 -0.707107
-0.000000 -0.707107 -0.707107
0.000000 0.707107 0.707107
0.707107 -0.707107 0.000000
-0.707107 0.707107 -0.000000
0.707107 -0.707107 0.000000
-0.707107 0.707107 -0.000000
0.000000 0.707107 -0.707107
0.000000 -0.707107 0.707107
-0.707107 -0.000000 -0.707107
0.707107 0.000000 0.707107
0.707107 -0.707107 0.000000
-0.707107 0.707107 -0.000000
-0.000000 0.707107 0.707107
0.000000 -0.707107 -0.707107
0.707107 -0.000000 -0.707107
-0.707107 0.000000 0.707107
-0.707107 0.000000 0.707107
0.707107 -0.000000 0.707107
-0.707107 0.000000 -0.707107
0.707107 -0.000000 -0.707107
-0.707107 0.000000 0.707107
-0.707107 0.000000 -0.707107
0.707107 -0.000000 0.707107
0.000000 -0.707107 -0.707107
-0.000000 0.707107 0.707107
0.707107 -0.707107 0.000000
-0.707107 0.707107 -0.000000
-0.707107 0.000000 -0.707107
0.707107 -0.000000 0.707107
0.000000 0.707107 -0.707107
0.707107 0.000000 0.707107
-0.707107 -0.707107 0.000000
0.707107 0.707107 -0.000000
-0.707107 -0.707107 0.000000
-0.707107 0.000000 0.707107
0.707107 -0.000000 -0.707107
-0.707107 0.000000 -0.707107
0.707107 0.707107 0.000000
0.000000 -0.707107 0.707107
0.000000 0.707107 -0.707107
-0.000000 -0.707107 0.707107
-0.000000 -0.707107 0.707107
0.707107 0.000000 -0.707107
-0.707107 -0.000000 0.707107
-0.707107 -0.000000 0.707107
0.707107 0.000000 -0.707107
0.707107 0.707107 0.000000
-0.707107 -0.707107 0.000000
0.707107 -0.707107 -0.000000
-0.000000 0.707107 -0.707107
-0.707107 -0.000000 0.707107
-0.000000 0.707107 0.707107
0.000000 -0.707107 -0.707107
0.707107 0.000000 -0.707107
-0.707107 -0.000000 0.707107
0.707107 -0.000000 0.707107
-0.707107 0.000000 -0.707107
-0.000000 -0.707107 0.707107
0.000000 0.707107 -0.707107
-0.000000 -0.707107 -0.707107
0.000000 0.707107 0.707107
0.000000 0.707107 -0.707107
-0.000000 -0.707107 0.707107
0.707107 -0.707107 0.000000
-0.707107 0.707107 -0.000000
0.707107 0.707107 -0.000000
-0.707107 -0.707107 0.000000
0.000000 -0.707107 0.707107
-0.000000 0.707107 -0.707107
0.000000 -0.707107 0.707107
0.000000 -0.707107 0.707107
-0.000000 0.707107 -0.707107
0.000000 0.707107 0.707107
0.000000 -0.707107 -0.707107
0.000000 0.707107 0.707107
-0.707107 0.000000 -0.707107
0.707107 -0.707107 -0.000000
0.000000 -0.707107 0.707107
-0.000000 0.707107 -0.707107
0.000000 0.707107 0.707107
-0.000000 -0.707107 -0.707107
-0.707107 0.000000 0.707107
0.707107 -0.000000 -0.707107
-0.000000 -0.707107 -0.707107
0.000000 0.707107 0.707107
-0.707107 -0.707107 0.000000
0.707107 0.707107 -0.000000
-0.000000 -0.707107 0.707107
0.000000 0.707107 -0.707107
0.707107 0.707107 -0.000000
-0.707107 -0.707107 0.000000
0.707107 0.707107 -0.000000
-0.707107 -0.707107 0.000000
0.000000 0.707107 0.707107
-0.000000 -0.707107 -0.707107
0.707107 -0.707107 0.000000
-0.707107 0.707107 -0.000000
-0.707107 0.707107 -0.000000
0.707107 -0.707107 0.000000
-0.707107 -0.000000 0.707107
0.707107 0.000000 -0.707107
0.707107 0.000000 -0.707107
-0.707107 -0.000000 0.707107
-0.000000 -0.000000 1.414214
0.707107 -0.000000 -0.707107
-0.707107 0.000000 -0.707107
0.707107 -0.707107 0.000000
-0.707107 0.707107 -0.000000
-0.707107 -0.000000 -0.707107
0.707107 0.000000 0.707107
-0.707107 0.000000 0.707107
0.707107 -0.000000 -0.707107
0.000000 0.707107 0.707107
-0.000000 -0.707107 -0.707107
-0.707107 -0.707107 -0.000000
0.707107 0.707107 0.000000
0.000000 0.707107 0.707107
-0.000000 -0.707107 -0.707107
0.707107 0.000000 -0.707107
-0.707107 -0.000000 0.707107
0.000000 0.707107 0.707107
-0.000000 -0.707107 -0.707107
0.000000 -0.707107 0.707107
-0.000000 0.707107 -0.707107
-0.000000 0.707107 -0.707107
-0.707107 0.000000 0.707107
0.707107 -0.000000 -0.707107
0.707107 0.707107 0.000000
-0.707107 -0.707107 -0.000000
-0.000000 0.707107 -0.707107
0.000000 -0.707107 0.707107
-0.707107 0.000000 0.707107
0.707107 -0.000000 -0.707107
-0.707107 -0.707107 0.000000
0.707107 0.707107 -0.000000
-0.000000 -0.707107 -0.707107
-0.000000 0.707107 0.707107
-0.707107 0.707107 0.000000
0.707107 -0.707107 -0.000000
0.000000 0.707107 -0.707107
0.000000 -0.707107 0.707107
0.707107 0.707107 0.000000
-0.707107 -0.707107 -0.000000
-0.707107 0.000000 0.707107
0.707107 -0.000000 -0.707107
-0.707107 0.000000 -0.707107
0.707107 -0.000000 0.707107
-0.000000 0.707107 -0.707107
0.000000 -0.707107 0.707107
0.000000 0.707107 0.707107
-0.000000 -0.707107 -0.707107
-0.707107 -0.707107 0.000000
0.707107 0.707107 -0.000000
-0.707107 0.000000 -0.707107
0.707107 -0.000000 0.707107
0.000000 -0.707107 -0.707107
0.000000 0.707107 0.707107
0.000000 0.707107 0.707107
0.000000 -0.707107 -0.707107
0.707107 -0.707107 0.000000
0.707107 -0.000000 -0.707107
0.707107 0.707107 0.000000
-0.707107 -0.707107 -0.000000
0.707107 -0.707107 0.000000
-0.707107 0.707107 -0.000000
-0.707107 0.000000 -0.707107
0.707107 -0.000000 0.707107
-0.707107 -0.000000 -0.707107
0.000000 0.707107 0.707107
0.707107 -0.707107 0.000000
-0.707107 -0.000000 0.707107