# vtk DataFile Version 3.0
Configuration exported from OpenDiS
ASCII
DATASET UNSTRUCTURED_GRID
POINTS 42358 FLOAT
-29412.000000 -29412.000000 -29412.000000
29412.000000 -29412.000000 -29412.000000
-29412.000000 29412.000000 -29412.000000
-29412.000000 -29412.000000 29412.000000
29412.000000 29412.000000 -29412.000000
29412.000000 -29412.000000 29412.000000
-29412.000000 29412.000000 29412.000000
29412.000000 29412.000000 29412.000000
19369.352905 19412.955594 -20437.953109
19369.353045 19575.277359 -20275.631484
19369.352905 19412.955594 -20437.953109
19705.584079 18866.187139 -21320.952738
19369.352905 19412.955594 -20437.953109
19784.678144 19172.293409 -20263.290055
-10320.130646 17698.184349 15154.916908
-9486.396797 18126.904470 14749.903181
-10320.130646 17698.184349 15154.916908
-11029.171104 17337.549823 15503.322841
20293.657720 9329.418696 25026.324442
20293.657720 8640.218187 24340.810873
20293.657720 9329.418696 25026.324442
20293.657720 9916.440760 25610.903551
92.943959 -10963.047120 -11280.064276
-232.686703 -10649.603360 -11280.064276
92.943959 -10963.047120 -11280.064276
486.376928 -11363.596956 -11280.064276
-22506.836913 23680.081590 -20244.910508
-23227.411861 23349.633406 -21295.934323
-22506.836913 23680.081590 -20244.910508
-22003.362467 24001.813171 -19419.700267
-1688.493917 14070.083277 9999.062089
-1116.367238 13800.158453 10841.127381
-1688.493917 14070.083277 9999.062089
-2219.137885 14488.497282 9049.976539
-24697.291539 18873.352735 -26744.546652
-25551.021858 18468.356891 -27193.118456
-24697.291539 18873.352735 -26744.546652
-24161.053714 19122.127086 -26457.083177
22289.600578 24989.417511 28019.307104
21523.267198 25755.750891 28019.307104
22289.600578 24989.417511 28019.307104
23006.261814 24272.756275 28019.307104
9481.139470 7608.802922 -28928.804508
8748.638288 8342.346242 -28928.804508
9481.139470 7608.802922 -28928.804508
10058.098694 7037.526714 -28928.804508
3825.782965 25638.080578 -1024.978756
4134.932639 25638.080578 -1334.843730
3825.782965 25638.080578 -1024.978756
3214.654696 25638.080578 -413.223050
-1988.063476 -8059.840366 27298.722322
-2696.183779 -7351.720063 27298.722322
-1988.063476 -8059.840366 27298.722322
-1278.672824 -8769.231018 27298.722322
12018.593359 15202.029630 9585.532676
11902.905108 14436.175151 10235.698905
12018.593359 15202.029630 9585.532676
12285.680117 16014.339966 9040.309098
-3247.642752 -11701.225881 -24678.983583
-2991.334955 -10878.213422 -23599.663328
-3247.642752 -11701.225881 -24678.983583
-3684.410324 -12233.961350 -25648.486624
-20721.598283 -9921.027160 8070.921069
-20443.144053 -9844.423029 8425.979429
-20721.598283 -9921.027160 8070.921069
-21219.444571 -10050.496878 7443.605062
-24899.731798 25471.547393 10767.006574
-25080.747422 25802.100622 10916.544179
-24899.731798 25471.547393 10767.006574
-23993.759499 24509.232169 10710.663649
-25467.289016 -5131.655833 -6001.875609
-25503.957474 -5914.050147 -6820.938380
-25467.289016 -5131.655833 -6001.875609
-25439.877778 -3982.146694 -4824.955232
20541.127304 27771.072445 29052.488764
20945.809927 27716.736277 28702.142309
20541.127304 27771.072445 29052.488764
20316.006674 27220.134345 28276.430034
20541.127304 27771.072445 29052.488764
19868.535431 28563.095150 29171.919596
13386.382430 15701.725136 -649.143326
13386.382430 16389.728146 -1337.146337
13386.382430 15701.725136 -649.143326
13387.302255 14768.407412 285.094222
17998.482065 9722.198100 16654.810004
18246.441161 9871.971888 17052.544402
17998.482065 9722.198100 16654.810004
17732.823311 9582.100018 16249.052700
6111.659562 -15237.014744 26374.592869
7480.505663 -16027.467234 25796.199258
6111.659562 -15237.014744 26374.592869
5082.194775 -14414.036452 26581.079364
-26882.129908 27854.037781 21339.566913
-27725.613132 27963.782721 20605.828629
-26882.129908 27854.037781 21339.566913
-26108.099848 27677.478838 21937.038030
15592.300560 -14371.940575 15071.914485
16329.073380 -13849.329302 13812.530392
15592.300560 -14371.940575 15071.914485
16443.933637 -15223.573652 15071.914485
15592.300560 -14371.940575 15071.914485
15035.719696 -14308.499000 14578.775196
-18512.954836 19946.822809 -16115.729602
-18512.955258 19264.864594 -16796.554170
-18512.954836 19946.822809 -16115.729602
-18512.956419 20934.662751 -15208.839599
-26284.973239 21991.596238 16590.563110
-26899.941952 22367.090713 16830.037348
-26284.973239 21991.596238 16590.563110
-25672.489957 21617.219802 16352.456265
-24423.204288 -29372.378763 14223.309514
-24906.833091 -28777.201580 14334.857894
-24423.204288 -29372.378763 14223.309514
-24397.723678 -29412.000000 14209.168887
-24397.723678 29411.999988 14209.168887
-23607.994899 28184.006201 13770.903867
-25763.689915 666.301724 18775.678030
-25424.915129 545.443546 18993.594638
-25763.689915 666.301724 18775.678030
-26562.904476 951.422162 18261.583907
-3438.044653 -18097.729100 -1168.114712
-4260.389663 -17895.782374 -1788.512997
-3438.044653 -18097.729100 -1168.114712
-2740.664406 -18173.126995 -546.132361
-6209.232962 -10231.316041 -25126.309295
-7333.074448 -10022.098020 -24211.685831
-6209.232962 -10231.316041 -25126.309295
-5550.348249 -10315.744677 -25700.765372
24804.473186 23532.225798 -28360.551486
24913.115186 22996.901681 -27933.853226
24804.473186 23532.225798 -28360.551486
25197.936600 23915.466244 -29137.258669
23121.228178 -22565.151053 274.222682
23800.608617 -23192.334200 -1032.340903
23121.228178 -22565.151053 274.222682
22358.127151 -22198.578033 1403.896729
23796.452713 -4753.327204 -23018.556304
24518.223590 -4735.951924 -23722.951902
23796.452713 -4753.327204 -23018.556304
22736.008338 -4921.088307 -22125.873034
-16637.391758 -24683.102580 10811.985312
-17060.879720 -24621.388801 11297.187053
-16637.391758 -24683.102580 10811.985312
-15962.557987 -24689.918503 10130.335618
-9141.015888 -8052.163474 -27774.385956
-9080.935579 -8524.273628 -27242.195494
-9141.015888 -8052.163474 -27774.385956
-9126.168588 -7211.422137 -28600.279993
-2891.835556 -23761.702646 -12801.964075
-3043.462984 -23458.936794 -12650.851187
-2891.835556 -23761.702646 -12801.964075
-1586.163891 -24008.223569 -11742.813334
-2891.835556 -23761.702646 -12801.964075
-3056.751162 -23667.528019 -13061.054309
28299.310439 11702.206941 3041.200535
29233.308889 11366.104680 4311.301246
28299.310439 11702.206941 3041.200535
27808.864980 12091.127986 2161.834031
-13280.645264 11197.811237 -22846.621940
-14672.003985 12588.260588 -22846.621940
-13280.645264 11197.811237 -22846.621940
-12540.510348 10784.860639 -23173.806258
-13280.645264 11197.811237 -22846.621940
-12062.105397 10871.177509 -21301.448345
-4719.472019 12846.213431 11540.621983
-5403.127913 11899.440256 11277.504702
-4719.472019 12846.213431 11540.621983
-4063.474550 13970.527863 12008.938946
12102.899871 130.952771 -11405.081851
11250.666122 -607.463606 -11291.269768
12102.899871 130.952771 -11405.081851
13286.857914 1161.757962 -11558.234702
-14755.554971 12938.855679 -23234.855842
-15619.771684 13808.473860 -23229.454373
-14755.554971 12938.855679 -23234.855842
-14024.087467 12167.426028 -23274.817988
27671.679710 993.601565 -2447.975640
27966.664116 1588.114712 -1558.478086
27671.679710 993.601565 -2447.975640
26940.388772 290.759056 -3882.109086
2388.084154 -18888.342809 4425.017065
2573.611384 -19224.835949 4575.982975
2388.084154 -18888.342809 4425.017065
2093.937029 -18315.435101 4146.256482
-11751.998806 -3971.133981 26507.544820
-11359.401072 -3329.453028 26756.628039
-11751.998806 -3971.133981 26507.544820
-12448.364797 -4651.352291 26523.692501
-27273.889357 -5709.271863 -1273.279299
-27273.889357 -4861.368123 -433.195234
-27273.889357 -5709.271863 -1273.279299
-27273.889357 -6639.911648 -2200.218538
22257.710193 21522.853345 430.381618
21810.912959 21956.459439 430.381618
22257.710193 21522.853345 430.381618
22905.393756 20872.800754 430.381618
13725.102150 4383.670168 16549.345271
13453.038055 3665.609646 15559.220654
13725.102150 4383.670168 16549.345271
14080.927997 5028.852194 17550.353144
18770.718821 -25208.552193 1981.342448
19497.905465 -24481.387746 1981.342448
18770.718821 -25208.552193 1981.342448
18026.390205 -25952.858089 1981.342448
4857.092687 -25499.491435 14807.848606
4857.092687 -26776.140171 13546.768457
4857.092687 -25499.491435 14807.848606
4857.092687 -25179.769172 15129.023669
-16423.581568 -23582.204127 25647.721724
-17246.178944 -23671.243960 26381.279267
-16423.581568 -23582.204127 25647.721724
-15946.481819 -23520.112885 25232.713217
27428.424415 24936.714814 -12323.229260
28124.385633 24247.944962 -12323.229260
27428.424415 24936.714814 -12323.229260
26671.198038 25686.926874 -12323.229260
12782.913336 -4846.470395 2091.898515
12331.660349 -5489.493425 997.622498
12782.913336 -4846.470395 2091.898515
13101.917848 -4388.875480 2868.497942
10722.335455 -18036.007721 23030.225111
10676.393551 -18720.117475 23668.392961
10722.335455 -18036.007721 23030.225111
10695.763178 -16811.905869 21779.550982
-28390.498328 27853.414567 -28906.454690
-28390.498328 28358.959881 -29412.000004
-28390.498328 28358.959881 29411.999984
-28390.498328 28625.804864 29145.155013
-28390.498328 27853.414567 -28906.454690
-28969.104514 27804.067244 -28278.501181
-28390.498328 27853.414567 -28906.454690
-29256.704236 26847.512604 -28766.758634
-22011.921297 347.429983 17899.797701
-22646.001808 377.011198 17295.298405
-22011.921297 347.429983 17899.797701
-21532.305735 255.015268 18286.998584
-26809.370231 -23000.401272 24548.869241
-27744.604833 -23935.635874 24548.869241
-26809.370231 -23000.401272 24548.869241
-26099.010717 -22290.041758 24548.869241
-28565.725241 -25534.420179 -14535.856405
-27665.559621 -26072.016991 -14173.287596
-28565.725241 -25534.420179 -14535.856405
-29412.000005 -24916.362778 -14764.073768
29411.999983 -24916.362778 -14764.073768
29280.046049 -24819.993234 -14799.658170
-13163.182210 -17422.613610 18510.555291
-13163.181821 -18248.272577 17683.663986
-13163.182210 -17422.613610 18510.555291
[...]
CELL_DATA 21176
VECTORS Burgers FLOAT
0.000000 0.000000 0.000000
-0.707107 -0.707107 0.000000
0.707107 0.000000 -0.707107
-0.000000 0.707107 0.707107
-0.707107 -0.000000 0.707107
0.707107 0.000000 -0.707107
0.000000 -0.707107 0.707107
0.000000 0.707107 -0.707107
-0.707107 -0.707107 -0.000000
0.707107 0.707107 0.000000
0.707107 0.000000 0.707107
-0.707107 -0.000000 -0.707107
-0.707107 0.000000 -0.707107
0.707107 -0.000000 0.707107
-0.000000 0.707107 -0.707107
0.000000 -0.707107 0.707107
-0.707107 -0.707107 0.000000
0.707107 0.707107 -0.000000
0.707107 0.707107 0.000000
-0.707107 -0.707107 -0.000000
-0.707107 0.000000 -0.707107
0.707107 0.000000 0.707107
-0.707107 -0.707107 0.000000
0.707107 0.707107 -0.000000
-0.707107 -0.000000 -0.707107
0.707107 0.000000 0.707107
-0.707107 0.000000 -0.707107
0.707107 -0.000000 0.707107
-0.707107 0.000000 -0.707107
0.707107 -0.000000 0.707107
0.707107 -0.000000 0.707107
-0.707107 0.000000 -0.707107
0.000000 0.707107 0.707107
-0.000000 -0.707107 -0.707107
-0.707107 0.707107 0.000000
0.707107 0.000000 0.707107
-0.000000 -0.707107 -0.707107
0.000000 0.707107 0.707107
-0.000000 -0.707107 -0.707107
0.000000 -0.707107 -0.707107
-0.000000 0.707107 0.707107
0.707107 0.000000 -0.707107
-0.707107 -0.000000 0.707107
-0.707107 0.000000 -0.707107
0.707107 -0.000000 0.707107
-0.707107 0.000000 0.707107
0.707107 0.707107 0.000000
-0.000000 -0.707107 -0.707107
-0.000000 -0.707107 0.707107
0.000000 0.707107 -0.707107
0.707107 -0.707107 0.000000
-0.707107 0.707107 -0.000000
0.000000 -0.707107 -0.707107
-0.000000 0.707107 0.707107
-0.000000 0.707107 0.707107
-0.707107 -0.000000 -0.707107
0.707107 0.000000 0.707107
0.707107 -0.000000 0.707107
-0.707107 0.000000 -0.707107
0.707107 0.000000 -0.707107
-0.707107 -0.000000 0.707107
0.707107 -0.707107 0.000000
-0.707107 0.707107 -0.000000
-0.707107 -0.000000 0.707107
0.707107 0.000000 -0.707107
0.000000 0.707107 0.707107
-0.000000 -0.707107 -0.707107
-0.707107 0.000000 0.707107
0.707107 -0.000000 -0.707107
-0.000000 0.707107 -0.707107
0.000000 -0.707107 0.707107
0.000000 -0.707107 -0.707107
-0.707107 0.707107 0.000000
0.707107 0.000000 0.707107
-0.707107 -0.000000 -0.707107
0.707107 0.000000 0.707107
-0.707107 -0.707107 -0.000000
0.000000 0.707107 -0.707107
0.707107 -0.000000 0.707107
0.000000 0.707107 0.707107
-0.000000 -0.707107 -0.707107
-0.707107 -0.000000 0.707107
0.707107 0.000000 -0.707107
-0.707107 0.000000 -0.707107
0.707107 -0.000000 0.707107
-0.000000 -0.707107 -0.707107
0.000000 0.707107 0.707107
0.000000 0.707107 -0.707107
-0.000000 -0.707107 0.707107
-0.000000 -0.707107 -0.707107
0.000000 0.707107 0.707107
0.000000 0.707107 -0.707107
-0.000000 -0.707107 0.707107
0.000000 -1.414214 0.000000
-0.000000 1.414214 -0.000000
0.707107 0.000000 0.707107
-0.707107 -0.000000 -0.707107
-0.707107 0.707107 -0.000000
0.707107 -0.707107 0.000000
0.000000 -0.707107 0.707107
-0.000000 0.707107 -0.707107
0.707107 0.707107 0.000000
-0.707107 -0.707107 -0.000000
0.707107 0.707107 0.000000
-0.707107 -0.707107 -0.000000
0.000000 0.707107 0.707107
-0.000000 -0.707107 -0.707107
-0.707107 -0.000000 -0.707107
0.707107 0.000000 0.707107
-0.707107 -0.707107 0.000000
-0.707107 -0.707107 0.000000
-0.000000 0.707107 -0.707107
0.707107 -0.000000 0.707107
-0.707107 -0.000000 -0.707107
0.707107 0.000000 0.707107
0.707107 -0.707107 0.000000
-0.707107 0.707107 -0.000000
-0.707107 -0.000000 -0.707107
0.707107 0.000000 0.707107
0.707107 0.000000 0.707107
-0.000000 -0.707107 0.707107
0.000000 0.707107 -0.707107
-0.707107 0.707107 0.000000
0.707107 -0.707107 -0.000000
-0.707107 -0.707107 0.000000
0.707107 0.707107 -0.000000
0.707107 0.707107 0.000000
-0.707107 -0.707107 -0.000000
0.000000 -0.707107 0.707107
-0.000000 0.707107 -0.707107
-0.000000 0.707107 -0.707107
0.000000 -0.707107 0.707107
-0.000000 0.707107 -0.707107
-0.707107 -0.707107 0.000000
0.707107 0.707107 -0.000000
0.000000 0.707107 0.707107
-0.000000 -0.707107 -0.707107
0.707107 -0.707107 -0.000000
-0.707107 0.707107 0.000000
-0.707107 -0.707107 -0.000000
0.707107 0.707107 0.000000
0.000000 0.707107 0.707107
-0.000000 -0.707107 -0.707107
0.707107 0.707107 -0.000000
-0.707107 -0.707107 0.000000
-0.707107 -0.707107 0.000000
0.707107 0.707107 -0.000000
0.707107 -0.000000 0.707107
-0.707107 0.000000 -0.707107
-0.707107 0.000000 0.707107
0.707107 -0.000000 -0.707107
0.000000 -0.707107 -0.707107
-0.000000 0.707107 0.707107
0.707107 -0.000000 -0.707107
-0.707107 0.000000 0.707107
0.707107 -0.707107 0.000000
-0.000000 0.707107 -0.707107
-0.707107 -0.000000 0.707107
0.000000 0.707107 -0.707107
-0.000000 -0.707107 0.707107
-0.707107 0.707107 -0.000000
0.707107 -0.707107 0.000000
0.707107 -0.707107 -0.000000
-0.707107 0.707107 0.000000
-0.000000 -0.707107 -0.707107
0.000000 0.707107 0.707107
-0.000000 0.707107 0.707107
0.000000 -0.707107 -0.707107
-0.707107 -0.000000 -0.707107
0.707107 0.000000 0.707107
-0.707107 0.000000 -0.707107
-0.000000 0.707107 0.707107
0.707107 -0.707107 0.000000
-0.000000 -0.707107 0.707107
0.000000 0.707107 -0.707107
-0.707107 -0.707107 0.000000
0.707107 0.707107 -0.000000
-0.707107 -0.000000 0.707107
0.707107 -0.000000 0.707107
-0.707107 0.000000 -0.707107
0.707107 0.000000 -0.707107
-0.000000 -0.707107 -0.707107
0.000000 0.707107 0.707107
0.000000 -0.707107 -0.707107
-0.000000 0.707107 0.707107
-0.707107 -0.000000 0.707107
0.707107 0.000000 -0.707107
0.707107 0.000000 -0.707107
-0.707107 -0.000000 0.707107
-0.000000 -0.707107 -0.707107
0.707107 0.707107 -0.000000
0.000000 0.707107 0.707107
-0.707107 -0.707107 0.000000
-0.707107 0.707107 0.000000
0.707107 -0.707107 -0.000000
-0.707107 -0.000000 0.707107
0.707107 0.000000 -0.707107
0.000000 -0.707107 0.707107
-0.000000 0.707107 -0.707107
-0.707107 0.000000 -0.707107
0.707107 -0.000000 0.707107
-0.707107 0.000000 0.707107
0.707107 -0.000000 -0.707107
0.707107 -0.000000 -0.707107
-0.707107 0.000000 0.707107
-0.707107 0.000000 0.707107
0.000000 0.707107 -0.707107
-0.000000 -0.707107 0.707107
0.000000 -0.707107 -0.707107
-0.000000 0.707107 0.707107
-0.707107 -0.000000 -0.707107
0.707107 0.707107 0.000000
0.000000 -0.707107 0.707107
0.707107 0.707107 0.000000
-0.707107 -0.707107 -0.000000
-0.000000 0.707107 0.707107
0.000000 -0.707107 -0.707107
0.000000 0.707107 -0.707107
-0.000000 -0.707107 0.707107
0.000000 0.707107 0.707107
-0.000000 -0.707107 -0.707107
-0.707107 -0.000000 0.707107
-0.000000 -0.707107 -0.707107
0.707107 0.707107 0.000000
0.000000 -0.707107 -0.707107
-0.000000 0.707107 0.707107
0.000000 0.707107 -0.707107
0.707107 -0.707107 0.000000
-0.707107 -0.000000 0.707107
0.707107 -0.000000 -0.707107
-0.707107 0.000000 0.707107
0.707107 -0.707107 -0.000000
-0.707107 0.707107 0.000000
-0.707107 -0.000000 -0.707107
0.707107 0.000000 0.707107
0.707107 -0.707107 0.000000
-0.707107 0.707107 -0.000000
-0.707107 0.000000 -0.707107
0.707107 -0.000000 0.707107
0.707107 -0.000000 0.707107
-0.707107 -0.000000 -0.707107
0.707107 0.000000 0.707107
-0.707107 -0.000000 -0.707107
0.707107 0.000000 0.707107
0.707107 -0.707107 0.000000
-0.000000 -0.707107 0.707107
-0.000000 -0.000000 -1.414214
0.000000 0.707107 0.707107
-0.707107 -0.000000 0.707107
0.707107 -0.000000 -0.707107
0.707107 -0.000000 -0.707107
0.707107 0.707107 0.000000
-0.707107 -0.707107 -0.000000
-0.707107 0.000000 -0.707107
0.707107 -0.000000 0.707107
-0.000000 0.707107 0.707107
0.000000 -0.707107 -0.707107
0.000000 0.707107 0.707107
-0.000000 -0.707107 -0.707107
-0.707107 0.000000 0.707107
0.707107 -0.000000 -0.707107
0.000000 0.707107 0.707107
-0.000000 -0.707107 -0.707107
0.707107 -0.707107 -0.000000
-0.707107 0.707107 0.000000
0.707107 -0.000000 -0.707107
-0.707107 0.000000 0.707107
0.707107 0.000000 0.707107
-0.707107 0.000000 -0.707107
0.707107 0.707107 -0.000000
-0.707107 -0.707107 0.000000
0.707107 -0.000000 0.707107
-0.707107 0.000000 -0.707107
0.707107 0.707107 -0.000000
-0.000000 -0.707107 0.707107
-0.707107 0.000000 -0.707107
0.707107 0.707107 0.000000
-0.707107 -0.707107 -0.000000
0.707107 -0.707107 -0.000000
-0.707107 0.707107 -0.000000
0.707107 0.000000 -0.707107
-0.707107 -0.000000 0.707107
-0.707107 -0.000000 -0.707107
0.707107 0.000000 0.707107
0.000000 0.707107 0.707107
0.000000 0.707107 0.707107
0.707107 -0.000000 -0.707107
-0.707107 -0.707107 0.000000
0.000000 0.707107 0.707107
-0.000000 -0.707107 -0.707107
-0.707107 0.000000 0.707107
0.707107 -0.000000 -0.707107
-0.000000 -0.707107 0.707107
0.707107 0.000000 -0.707107
-0.707107 0.707107 -0.000000
0.707107 -0.707107 -0.000000
-0.707107 0.707107 0.000000
-0.000000 -0.707107 0.707107
0.000000 0.707107 -0.707107
0.707107 0.707107 0.000000
-0.707107 -0.707107 -0.000000
0.707107 -0.707107 0.000000
-0.707107 0.707107 0.000000
0.707107 0.707107 0.000000
-0.707107 -0.707107 -0.000000
-0.707107 0.000000 -0.707107
0.707107 -0.000000 0.707107
-0.707107 0.000000 -0.707107
-0.707107 0.000000 -0.707107
0.707107 -0.000000 0.707107
0.707107 -0.000000 0.707107
-0.707107 0.000000 -0.707107
0.707107 0.000000 0.707107
-0.707107 -0.000000 -0.707107
-0.000000 0.707107 0.707107
0.000000 -0.707107 -0.707107
0.707107 0.000000 -0.707107
0.000000 -0.707107 -0.707107
-1.414214 0.707107 0.707107
0.707107 -0.000000 0.707107
0.000000 -0.707107 0.707107
-0.000000 0.707107 -0.707107
-0.000000 -0.707107 0.707107
0.000000 0.707107 -0.707107
0.000000 -0.707107 -0.707107
-0.000000 0.707107 0.707107
-0.707107 0.000000 -0.707107
0.707107 -0.000000 0.707107
-0.707107 -0.707107 0.000000
0.707107 0.707107 -0.000000
-0.707107 -0.000000 -0.707107
0.707107 0.000000 0.707107
0.000000 0.707107 -0.707107
-0.000000 -0.707107 0.707107
-0.000000 -0.707107 -0.707107
0.000000 0.707107 0.707107
0.000000 -0.707107 -0.707107
-0.000000 0.707107 0.707107
-0.707107 0.707107 0.000000
-0.000000 -0.707107 -0.707107
0.707107 -0.000000 0.707107
0.000000 -0.707107 0.707107
-0.000000 0.707107 -0.707107
-0.707107 -0.707107 0.000000
-0.000000 0.707107 -0.707107
0.707107 -0.000000 0.707107
-0.000000 0.707107 0.707107
-0.707107 -0.707107 0.000000
0.707107 0.707107 -0.000000
-0.707107 -0.707107 -0.000000
0.707107 0.707107 0.000000
-1.414214 1.414214 -0.000000
1.414214 -0.707107 0.707107
0.000000 -0.707107 -0.707107
0.707107 0.000000 -0.707107
-0.707107 -0.000000 0.707107
-0.707107 0.707107 -0.000000
0.707107 -0.707107 0.000000
-0.000000 -0.707107 -0.707107
0.000000 0.707107 0.707107
-0.707107 -0.707107 -0.000000
0.707107 0.707107 0.000000
0.000000 -0.707107 0.707107
-0.000000 0.707107 -0.707107
0.707107 0.707107 -0.000000
-0.707107 -0.707107 0.000000
-0.707107 -0.000000 -0.707107
0.707107 0.000000 0.707107
0.707107 0.000000 0.707107
-0.707107 -0.000000 -0.707107
0.707107 0.000000 -0.707107
-0.707107 -0.000000 0.707107
0.707107 -0.000000 0.707107
-0.707107 -0.707107 0.000000
0.000000 0.707107 -0.707107
0.000000 0.707107 0.707107
-0.000000 -0.707107 -0.707107
-0.707107 0.000000 0.707107
0.707107 -0.000000 -0.707107
-0.707107 0.000000 0.707107
0.707107 -0.000000 -0.707107
0.707107 -0.707107 0.000000
-0.707107 0.707107 0.000000
0.707107 -0.000000 0.707107
-0.707107 0.000000 -0.707107
-0.707107 0.707107 -0.000000
0.707107 -0.707107 0.000000
-0.000000 0.707107 0.707107
0.000000 -0.707107 -0.707107
0.707107 0.000000 -0.707107
-0.707107 -0.000000 0.707107
-0.707107 0.000000 0.707107
0.707107 0.000000 -0.707107
-0.000000 -0.707107 -0.707107
0.707107 -0.000000 0.707107
0.000000 0.707107 -0.707107
-0.707107 0.000000 0.707107
-0.707107 0.000000 -0.707107
0.707107 -0.000000 0.707107
0.000000 0.707107 0.707107
-0.000000 -0.707107 -0.707107
0.707107 -0.707107 -0.000000
-0.707107 0.707107 0.000000
0.000000 0.707107 0.707107
-0.000000 -0.707107 -0.707107
-0.707107 -0.707107 0.000000
0.707107 0.707107 -0.000000
-0.000000 -0.707107 -0.707107
0.000000 0.707107 0.707107
-0.707107 0.707107 0.000000
0.707107 -0.707107 -0.000000
-0.000000 0.707107 0.707107
-0.000000 -0.707107 -0.707107
0.000000 0.707107 0.707107
-0.707107 0.000000 -0.707107
0.707107 -0.000000 0.707107
0.707107 -0.707107 0.000000
-0.707107 0.707107 -0.000000
0.707107 0.707107 -0.000000
-0.707107 -0.707107 0.000000
0.000000 -0.707107 -0.707107
-0.000000 0.707107 0.707107
0.000000 0.707107 0.707107
-0.000000 0.707107 -0.707107
0.000000 -0.707107 0.707107
0.707107 -0.000000 -0.707107
-0.707107 0.000000 0.707107
-0.707107 -0.000000 0.707107
0.707107 -0.000000 -0.707107
-0.000000 0.707107 0.707107
0.000000 -0.707107 -0.707107
0.000000 0.707107 0.707107
-0.000000 -0.707107 -0.707107
0.707107 0.000000 0.707107
-0.707107 -0.000000 -0.707107
-0.707107 -0.000000 -0.707107
0.707107 0.000000 0.707107
-0.000000 -0.707107 0.707107
0.000000 0.707107 -0.707107
0.000000 -0.707107 -0.707107
0.000000 0.707107 -0.707107
-0.000000 -0.707107 0.707107
0.707107 -0.000000 0.707107
-0.707107 -0.000000 -0.707107
-0.707107 0.000000 -0.707107
0.707107 -0.000000 0.707107
0.707107 -0.000000 0.707107
0.000000 0.707107 -0.707107
-0.000000 -0.707107 0.707107
0.707107 0.000000 -0.707107
0.000000 0.707107 0.707107
-0.000000 -0.707107 -0.707107
-0.707107 0.000000 -0.707107
0.707107 -0.000000 -0.707107
0.000000 0.000000 1.414214
-0.000000 0.707107 0.707107
-0.000000 0.707107 0.707107
0.000000 -0.707107 -0.707107
-0.707107 0.707107 0.000000
0.707107 -0.707107 -0.000000
-0.707107 -0.707107 -0.000000
-0.707107 -0.707107 -0.000000
0.707107 0.707107 0.000000
-0.707107 0.000000 0.707107
0.707107 -0.000000 -0.707107
-0.000000 0.707107 -0.707107
0.000000 -0.707107 0.707107
0.707107 0.707107 0.000000
-0.707107 -0.707107 -0.000000
-0.707107 0.000000 0.707107
0.707107 -0.000000 -0.707107
-0.000000 -0.707107 -0.707107
0.000000 0.707107 0.707107
0.707107 0.000000 -0.707107
-0.707107 -0.707107 -0.000000
-0.000000 0.707107 0.707107
-0.707107 -0.707107 0.000000
0.707107 0.707107 -0.000000
0.707107 -0.707107 0.000000
-0.707107 0.707107 -0.000000
-0.000000 -0.707107 -0.707107
0.000000 0.707107 0.707107
-0.707107 -0.707107 -0.000000
0.000000 0.707107 0.707107
-0.000000 -0.707107 -0.707107
-0.707107 0.000000 -0.707107
0.707107 -0.000000 0.707107
0.707107 -0.707107 -0.000000
-0.707107 0.707107 -0.000000
0.000000 0.707107 0.707107
-0.000000 -0.707107 -0.707107
-0.707107 0.000000 -0.707107
0.707107 -0.000000 0.707107
0.000000 0.707107 -0.707107
-0.000000 -0.707107 0.707107
0.000000 -0.707107 -0.707107
0.707107 0.000000 0.707107
-0.707107 0.707107 -0.000000
-0.707107 0.707107 0.000000
0.707107 -0.707107 -0.000000
0.707107 -0.707107 0.000000
-0.707107 0.707107 -0.000000
-0.707107 0.000000 0.707107
0.707107 -0.000000 -0.707107
-0.707107 0.000000 0.707107
-0.707107 0.000000 0.707107
0.707107 -0.000000 -0.707107
0.000000 0.707107 -0.707107
-0.000000 -0.707107 0.707107
-0.707107 0.707107 0.000000
0.707107 -0.707107 -0.000000
-0.000000 -0.707107 0.707107
0.000000 0.707107 -0.707107
-0.000000 -0.707107 -0.707107
0.000000 0.707107 0.707107
-0.000000 -0.707107 0.707107
-0.707107 0.707107 0.000000
0.707107 0.000000 -0.707107
0.000000 -0.707107 -0.707107
-0.000000 0.707107 0.707107
-0.707107 0.707107 0.000000
0.707107 -0.707107 -0.000000
0.000000 -0.707107 -0.707107
-0.000000 0.707107 0.707107
-0.000000 0.707107 0.707107
0.000000 -0.707107 -0.707107
-0.000000 0.707107 0.707107
0.000000 -0.707107 -0.707107
0.707107 -0.000000 -0.707107
-0.707107 0.000000 0.707107
-0.707107 0.000000 0.707107
0.707107 -0.000000 0.707107
-0.707107 0.000000 -0.707107
0.000000 -0.707107 -0.707107
-0.000000 0.707107 0.707107
-0.707107 0.000000 -0.707107
0.707107 -0.000000 0.707107
0.707107 -0.000000 -0.707107
-0.707107 0.000000 0.707107
-0.707107 0.000000 0.707107
0.707107 -0.707107 0.000000
-0.707107 0.707107 -0.000000
0.707107 -0.707107 -0.000000
-0.707107 0.707107 0.000000
0.000000 0.707107 -0.707107
0.707107 0.000000 0.707107
-0.707107 -0.707107 0.000000
0.707107 0.707107 -0.000000
-0.707107 -0.707107 0.000000
-0.000000 -0.707107 0.707107
0.000000 0.707107 -0.707107
-0.707107 0.000000 -0.707107
0.000000 -0.707107 0.707107
0.707107 0.707107 0.000000
0.707107 0.000000 0.707107
-0.707107 -0.000000 -0.707107
-0.707107 0.000000 -0.707107
0.707107 -0.000000 0.707107
-0.000000 -0.707107 -0.707107
0.000000 0.707107 0.707107
0.707107 0.707107 0.000000
-0.707107 -0.707107 0.000000
-0.000000 -0.707107 -0.707107
0.000000 0.707107 0.707107
-0.000000 0.707107 0.707107
0.000000 -0.707107 -0.707107
0.000000 0.707107 0.707107
0.707107 0.000000 -0.707107
-0.707107 -0.000000 0.707107
-0.000000 -0.707107 0.707107
0.000000 0.707107 -0.707107
-0.000000 -0.707107 -0.707107
0.000000 0.707107 0.707107
0.000000 0.707107 -0.707107
-0.000000 -0.707107 0.707107
-0.707107 -0.000000 -0.707107
0.707107 0.000000 0.707107
0.707107 0.707107 -0.000000
-0.707107 -0.707107 0.000000
0.707107 -0.707107 0.000000
-0.707107 0.707107 -0.000000
0.000000 -0.707107 0.707107
0.000000 -0.707107 0.707107
-0.000000 0.707107 -0.707107
0.000000 0.707107 0.707107
0.000000 -0.707107 -0.707107
-0.707107 -0.000000 -0.707107
0.707107 0.000000 0.707107
0.707107 0.000000 0.707107
0.000000 -0.707107 0.707107
-0.000000 0.707107 -0.707107
0.000000 0.707107 0.707107
-0.000000 -0.707107 -0.707107
-0.707107 0.000000 0.707107
0.707107 -0.000000 -0.707107
-0.000000 -0.707107 -0.707107
0.000000 0.707107 0.707107
-0.707107 0.000000 0.707107
0.707107 -0.000000 -0.707107
-0.000000 -0.707107 0.707107
0.000000 0.707107 -0.707107
0.707107 0.707107 -0.000000
-0.707107 -0.707107 0.000000
0.707107 0.707107 -0.000000
-0.707107 -0.707107 0.000000
0.000000 -0.707107 0.707107
-0.000000 0.707107 -0.707107
-0.707107 0.707107 0.000000
0.707107 0.000000 -0.707107
-0.000000 -0.707107 0.707107
-0.000000 -0.707107 -0.707107
0.000000 0.707107 0.707107
-0.707107 -0.000000 0.707107
0.707107 0.000000 -0.707107
0.000000 0.707107 0.707107
-0.000000 -0.707107 -0.707107
-0.000000 -0.000000 1.414214
0.707107 -0.000000 -0.707107
-0.707107 0.000000 -0.707107
0.707107 -0.707107 0.000000
-0.707107 0.707107 -0.000000
-0.707107 -0.000000 -0.707107
0.707107 0.000000 0.707107
-0.707107 0.000000 0.707107
0.707107 -0.000000 -0.707107
0.000000 0.707107 0.707107
-0.000000 -0.707107 -0.707107
0.707107 -0.000000 0.707107
-0.707107 0.000000 -0.707107
0.000000 -0.707107 -0.707107
-0.000000 0.707107 0.707107
-0.707107 -0.000000 0.707107
0.707107 0.000000 -0.707107
0.707107 0.000000 -0.707107
-0.707107 -0.000000 0.707107
0.000000 0.707107 0.707107
-0.000000 -0.707107 -0.707107
0.000000 -0.707107 0.707107
-0.000000 0.707107 -0.707107
-0.707107 0.707107 0.000000
0.707107 -0.707107 -0.000000
-0.000000 1.414214 -0.000000
-0.000000 -0.707107 0.707107
0.000000 -0.707107 -0.707107
0.000000 -0.707107 -0.707107
-0.000000 0.707107 0.707107
-0.707107 -0.707107 0.000000
0.707107 0.707107 -0.000000
-0.000000 -0.707107 -0.707107
-0.000000 0.707107 0.707107
0.000000 -0.707107 -0.707107
-0.707107 0.707107 0.000000
0.000000 0.707107 -0.707107
0.000000 -0.707107 0.707107
-0.707107 -0.000000 -0.707107
0.707107 0.000000 0.707107
-0.707107 0.000000 0.707107
0.707107 -0.000000 -0.707107
-0.707107 0.000000 -0.707107
0.707107 -0.000000 0.707107
-0.000000 0.707107 -0.707107
0.000000 -0.707107 0.707107
0.000000 0.707107 0.707107
-0.000000 -0.707107 -0.707107
-0.707107 -0.707107 0.000000
0.707107 0.707107 -0.000000
0.000000 0.707107 -0.707107
-0.000000 -0.707107 0.707107
0.000000 -0.707107 -0.707107
0.000000 0.707107 0.707107
0.707107 -0.000000 -0.707107
-0.707107 0.000000 0.707107
-0.707107 0.000000 0.707107
0.707107 0.707107 -0.000000
-0.707107 -0.707107 0.000000
0.707107 -0.000000 -0.707107
-0.707107 0.000000 0.707107
0.707107 -0.000000 -0.707107
-0.000000 0.707107 -0.707107
0.000000 -0.707107 0.707107
-0.000000 0.707107 -0.707107
0.000000 -0.707107 0.707107
-0.000000 -0.707107 -0.707107
0.000000 0.707107 0.707107
-0.000000 -0.707107 0.707107
0.000000 0.707107 -0.707107
0.707107 0.707107 0.000000
-0.707107 -0.707107 -0.000000
0.707107 -0.000000 -0.707107
0.000000 -0.707107 0.707107
-0.000000 0.707107 -0.707107
-0.000000 -0.707107 -0.707107
0.000000 0.707107 0.707107
-0.000000 0.707107 -0.707107
0.000000 -0.707107 0.707107
-0.000000 -0.707107 0.707107
0.000000 0.707107 -0.707107
-0.707107 -0.707107 0.000000
0.707107 0.707107 0.000000
-0.707107 0.707107 0.000000
-0.000000 -1.414214 -0.000000