# vtk DataFile Version 3.0
Configuration exported from OpenDiS
ASCII
DATASET UNSTRUCTURED_GRID
POINTS 26490 FLOAT
-29412.000000 -29412.000000 -29412.000000
29412.000000 -29412.000000 -29412.000000
-29412.000000 29412.000000 -29412.000000
-29412.000000 -29412.000000 29412.000000
29412.000000 29412.000000 -29412.000000
29412.000000 -29412.000000 29412.000000
-29412.000000 29412.000000 29412.000000
29412.000000 29412.000000 29412.000000
-7941.484111 -2777.112523 -17339.360651
-7098.992405 -2809.967087 -16464.014381
-7941.484111 -2777.112523 -17339.360651
-9156.450908 -2798.455531 -18532.984441
-3057.218879 -29321.982529 -7407.067516
-3228.180569 -29195.394664 -7109.517961
-3057.218879 -29321.982529 -7407.067516
-3147.236351 -29412.000001 -7407.067516
-3147.236351 29411.999988 -7407.067516
-3905.587441 28653.648910 -7407.067516
-3057.218879 -29321.982529 -7407.067516
-3057.218879 -29412.000001 -7497.084987
-3057.218879 29411.999988 -7497.084987
-3057.218879 28608.561173 -8300.523814
-3057.218879 -29321.982529 -7407.067516
-2048.953560 -28913.031415 -6807.753311
20293.657720 9376.855072 25074.107654
20293.657720 8950.444901 24666.431827
20293.657720 9376.855072 25074.107654
20293.657720 10370.637481 26064.052356
2196.389130 -19110.686019 3051.610838
3153.350003 -18675.236530 3573.122222
2196.389130 -19110.686019 3051.610838
1413.871526 -19428.948978 2587.356193
26340.851382 -22445.928323 -2094.787970
25884.200131 -23184.925971 -3290.436869
26340.851382 -22445.928323 -2094.787970
26701.208631 -21830.774581 -1119.276979
28932.922956 -24752.460490 19400.535026
27920.513841 -25286.165944 18921.831364
28932.922956 -24752.460490 19400.535026
29411.999997 -24423.484740 19550.636316
-29411.999991 -24423.484740 19550.636316
-28894.612136 -24068.201461 19712.740904
-13739.860488 13377.382505 16913.657252
-15152.285004 13186.206281 18134.905544
-13739.860488 13377.382505 16913.657252
-12866.640932 13486.823751 16149.878941
5944.220966 -15734.092914 -2820.617746
7205.675367 -14652.479696 -2640.776564
5944.220966 -15734.092914 -2820.617746
5740.285012 -16086.569580 -2264.205126
5944.220966 -15734.092914 -2820.617746
5708.882193 -16225.839896 -3077.025954
-2580.732853 -12646.285404 8661.127445
-1686.620135 -12646.285404 7767.014727
-2580.732853 -12646.285404 8661.127445
-3471.066615 -12646.285404 9551.461206
3815.059366 25638.080578 -1014.221413
4677.836387 25638.080578 -1876.998434
3815.059366 25638.080578 -1014.221413
2959.602296 25638.080578 -157.908516
7079.657955 17441.141893 14790.684898
7841.634833 17441.141893 15552.661776
7079.657955 17441.141893 14790.684898
6074.752076 17441.141893 13785.779018
-24675.772528 104.777936 -6925.015214
-24470.220715 -1305.540889 -5720.248201
-24675.772528 104.777936 -6925.015214
-24934.211887 331.627941 -6893.425859
-24675.772528 104.777936 -6925.015214
-24397.194689 143.560626 -7242.375743
-14873.516524 914.389333 9969.761003
-14438.855123 611.312453 10707.499285
-14873.516524 914.389333 9969.761003
-15402.067649 1351.673788 9003.925423
-697.184372 -3409.086539 -4502.532799
-1799.490291 -3409.086539 -5604.838718
-697.184372 -3409.086539 -4502.532799
232.884472 -3409.086539 -3572.278568
-23847.234773 -18142.630902 29189.202190
-22978.956304 -17375.867761 29290.717519
-23847.234773 -18142.630902 29189.202190
-24763.140826 -18847.766962 28978.432198
21462.227233 22996.901681 -24482.981268
22353.042346 22996.901681 -25373.796381
21462.227233 22996.901681 -24482.981268
20065.270299 22996.901681 -23100.837681
-17231.334001 19339.937217 -18001.850274
-17231.334001 20161.913134 -17179.860916
-17231.334001 19339.937217 -18001.850274
-17231.334001 18448.724985 -18893.062505
13395.906627 22383.636685 -13849.512568
13395.906627 23597.583474 -12635.565778
13395.906627 22383.636685 -13849.512568
12816.812301 22624.140804 -14188.102774
13395.906627 22383.636685 -13849.512568
13748.007796 21495.401720 -15089.848701
-27466.545960 -22333.626657 20019.249531
-27768.625151 -22635.705848 20019.249531
-27466.545960 -22333.626657 20019.249531
-26424.674807 -21291.755504 20019.249531
-13903.615518 -22021.112306 24193.829781
-12716.709698 -21613.967389 23414.068878
-13903.615518 -22021.112306 24193.829781
-15247.513685 -22710.479355 24848.360900
-14932.389080 18126.300115 22855.103454
-15471.755356 17028.504066 22296.673681
-14932.389080 18126.300115 22855.103454
-14350.606246 19368.652768 23515.673273
4829.025115 5573.637666 -28299.248517
4146.038679 5060.806947 -27103.431362
4829.025115 5573.637666 -28299.248517
5265.901012 6249.513257 -29412.000005
5265.901012 6249.513257 29411.999984
5373.558386 6416.066256 29137.789622
9389.269955 17238.869863 24288.866550
10279.886308 17390.981411 25027.371355
9389.269955 17238.869863 24288.866550
8616.565279 17034.263264 23720.768473
23308.717407 22996.901681 -26329.471442
22353.042346 22996.901681 -25373.796381
23308.717407 22996.901681 -26329.471442
24111.848153 22996.901681 -27132.602189
24489.000341 1488.646938 4503.322792
24157.060774 787.505029 4872.525134
24489.000341 1488.646938 4503.322792
24867.691314 2286.808852 4083.851851
24489.000341 1488.646938 4503.322792
24070.843169 2103.991407 4700.510089
24489.000341 1488.646938 4503.322792
25131.842044 623.572268 4281.089824
22874.944717 -11421.514558 -6093.781554
21984.251287 -11421.514558 -6984.474983
22874.944717 -11421.514558 -6093.781554
23761.067951 -11421.514558 -5207.658320
-12219.241500 -15951.785975 3266.299938
-11594.375978 -17041.885806 2801.065629
-12219.241500 -15951.785975 3266.299938
-12836.138022 -14925.735513 3675.453877
14817.981321 10904.221758 3658.258471
14041.254829 10922.383933 4416.822729
14817.981321 10904.221758 3658.258471
15298.129836 12217.150903 4491.039100
14817.981321 10904.221758 3658.258471
15236.534181 10893.707896 3250.219473
-7618.933022 -25811.414488 -1993.020098
-7984.572160 -24758.140400 -1305.385148
-7618.933022 -25811.414488 -1993.020098
-8369.683058 -26233.311989 -3165.667635
-7618.933022 -25811.414488 -1993.020098
-6999.237247 -26199.786340 -1761.696175
14042.476496 -10217.546981 -20009.144968
13929.658698 -11513.839983 -21192.620172
14042.476496 -10217.546981 -20009.144968
14106.824965 -9371.259223 -19227.205679
4718.872750 -6756.121264 12078.404118
4718.872750 -5973.215486 12861.309896
4718.872750 -6756.121264 12078.404118
4718.872750 -7655.267717 11179.257666
3705.317491 -16071.459362 4649.983452
4341.920542 -17268.737039 5210.658077
3705.317491 -16071.459362 4649.983452
3342.386121 -15352.878509 4294.333968
-16788.530965 24262.056682 -15898.418813
-17818.695649 24262.056682 -16928.583497
-16788.530965 24262.056682 -15898.418813
-15904.225616 24262.056682 -15014.113464
9787.137468 -19216.745951 -6236.362790
9722.094021 -18691.212469 -5645.785861
9787.137468 -19216.745951 -6236.362790
9919.864999 -18394.489569 -7191.346702
-6581.960718 19859.320460 -9615.198193
-7413.517386 19027.763792 -9615.198193
-6581.960718 19859.320460 -9615.198193
-5689.790828 20751.490352 -9615.198193
-27464.401251 -18154.804715 -28870.765306
-26589.217524 -18798.558609 -29102.195140
-27464.401251 -18154.804715 -28870.765306
-28299.919950 -17628.423040 -28561.628282
22558.047402 7990.787937 -27430.657552
23445.643418 8878.383954 -27430.657552
22558.047402 7990.787937 -27430.657552
21496.476268 6929.216803 -27430.657552
-27565.374557 25482.540720 -22846.621940
-28444.219731 26361.385894 -22846.621940
-27565.374557 25482.540720 -22846.621940
-26618.713988 24535.880151 -22846.621940
12566.646336 19855.796683 12311.989531
13191.191780 18749.477495 11830.215787
12566.646336 19855.796683 12311.989531
12055.628852 20712.342867 12657.518231
-9956.446713 -8843.561299 -9090.700326
-9732.837314 -9978.073906 -10448.822333
-9956.446713 -8843.561299 -9090.700326
-10428.205839 -7799.197465 -7574.577366
28080.390859 22580.813281 8840.371372
27088.130303 21805.003423 9056.822071
28080.390859 22580.813281 8840.371372
29296.117606 23714.999725 8758.831070
-9247.107467 18483.893021 19431.976533
-9467.336521 19489.771017 20217.625475
-9247.107467 18483.893021 19431.976533
-9005.123621 17378.041431 18568.108790
-17939.769285 -460.922140 23634.716051
-17186.729456 -1039.555763 24966.389503
-17939.769285 -460.922140 23634.716051
-18752.379654 -73.008065 22434.191606
-21814.245189 21721.184488 -11158.931330
-20982.983369 21368.948142 -10679.905856
-21814.245189 21721.184488 -11158.931330
-22415.618420 21991.868548 -11489.620501
-12822.959853 -15844.075623 -13224.701510
-12883.676870 -15027.051562 -12346.960433
-12822.959853 -15844.075623 -13224.701510
-12839.696750 -16865.636035 -14229.525026
13950.104651 -7015.638319 5383.101571
14784.532101 -7870.447562 5383.101571
13950.104651 -7015.638319 5383.101571
13008.050777 -6093.849108 5383.101571
-23195.628156 -18764.203554 24063.245975
-22248.059208 -19136.309024 23487.782496
-23195.628156 -18764.203554 24063.245975
-22225.048938 -18284.365217 24553.986856
16827.464708 9507.138277 251.691603
16658.619986 8586.062392 -500.539560
16827.464708 9507.138277 251.691603
16792.970727 10536.687166 1315.734472
-6519.688831 -12682.614130 -23329.422569
-6519.688831 -11932.660004 -24079.376695
-6519.688831 -12682.614130 -23329.422569
-6519.688831 -13569.600030 -22442.436669
-16275.243985 5680.000685 -1400.299180
-17058.780209 5594.939556 -2268.896532
-16275.243985 5680.000685 -1400.299180
-15279.190397 5585.171311 -499.074966
17371.607846 -3391.343707 -3735.980073
17374.687861 -3475.859957 -3648.383808
17371.607846 -3391.343707 -3735.980073
17722.839998 -3052.168445 -3723.923182
17371.607846 -3391.343707 -3735.980073
16137.745275 -3475.859957 -4885.326394
3653.239199 12403.110747 -8629.409843
3861.268791 13343.574842 -9361.844347
3653.239199 12403.110747 -8629.409843
3449.499976 11068.146265 -7498.184585
-2906.263693 -3409.086539 -6711.612120
-1799.490291 -3409.086539 -5604.838718
-2906.263693 -3409.086539 -6711.612120
-3741.874098 -3409.086539 -7545.981595
23647.756245 -175.858724 5326.584357
22824.508523 -1642.006327 5969.482883
23647.756245 -175.858724 5326.584357
[...]
CELL_DATA 13242
VECTORS Burgers FLOAT
0.000000 0.000000 0.000000
0.707107 0.707107 0.000000
-0.707107 -0.707107 0.000000
0.707107 0.000000 -0.707107
-0.707107 0.707107 0.000000
-0.707107 0.707107 0.000000
0.707107 -0.000000 0.707107
0.707107 -0.000000 0.707107
-0.707107 -0.707107 0.000000
0.000000 -0.707107 0.707107
0.000000 0.707107 -0.707107
-0.707107 0.000000 -0.707107
0.707107 0.000000 0.707107
-0.707107 0.707107 -0.000000
0.707107 -0.707107 0.000000
0.707107 0.000000 0.707107
-0.707107 0.000000 -0.707107
-0.707107 0.000000 -0.707107
-0.000000 -0.707107 -0.707107
0.000000 0.707107 0.707107
-0.707107 -0.707107 0.000000
0.707107 0.000000 -0.707107
0.000000 0.707107 0.707107
-0.707107 0.000000 -0.707107
0.707107 0.000000 0.707107
-0.707107 0.000000 -0.707107
0.707107 0.000000 0.707107
-0.707107 0.000000 0.707107
0.707107 -0.000000 -0.707107
-0.000000 0.707107 -0.707107
0.707107 -0.707107 0.000000
-0.707107 -0.000000 0.707107
-0.707107 0.000000 -0.707107
0.707107 -0.000000 0.707107
0.707107 -0.000000 -0.707107
-0.707107 0.000000 0.707107
-0.707107 -0.707107 0.000000
0.707107 0.707107 -0.000000
-0.707107 0.000000 -0.707107
0.707107 0.000000 0.707107
-0.000000 0.707107 -0.707107
0.000000 -0.707107 0.707107
0.707107 0.707107 0.000000
-0.000000 -0.707107 -0.707107
-0.707107 -0.000000 0.707107
-0.000000 1.414214 0.000000
0.000000 -1.414214 -0.000000
-0.000000 0.707107 0.707107
0.000000 -0.707107 -0.707107
0.000000 0.707107 0.707107
-0.000000 -0.707107 -0.707107
0.707107 -0.707107 0.000000
-0.707107 0.707107 0.000000
-0.707107 0.707107 0.000000
-0.000000 0.707107 -0.707107
-0.000000 -0.707107 0.707107
0.707107 -0.000000 0.707107
-0.707107 -0.000000 -0.707107
-0.000000 0.707107 -0.707107
0.000000 -0.707107 0.707107
0.000000 -0.707107 -0.707107
-0.000000 0.707107 0.707107
0.707107 0.000000 -0.707107
-0.707107 -0.000000 0.707107
0.000000 0.707107 0.707107
-0.000000 -0.707107 -0.707107
-0.000000 -0.707107 0.707107
0.707107 0.000000 -0.707107
-0.707107 0.707107 -0.000000
0.000000 -0.707107 -0.707107
0.707107 0.000000 0.707107
-0.707107 0.707107 0.000000
-0.707107 -0.707107 -0.000000
0.707107 0.707107 -0.000000
-0.000000 0.707107 -0.707107
-0.000000 -0.707107 0.707107
-0.707107 0.707107 -0.000000
0.707107 -0.707107 -0.000000
0.707107 -0.000000 -0.707107
-0.707107 -0.000000 0.707107
0.707107 0.000000 -0.707107
-0.707107 0.000000 0.707107
-0.707107 0.707107 -0.000000
0.707107 -0.707107 -0.000000
-0.707107 0.000000 0.707107
0.707107 -0.000000 -0.707107
0.707107 -0.707107 -0.000000
-0.707107 0.707107 0.000000
-0.707107 -0.707107 -0.000000
0.707107 0.707107 0.000000
0.707107 0.000000 0.707107
-0.707107 -0.000000 -0.707107
0.000000 0.707107 0.707107
0.000000 -0.707107 -0.707107
0.000000 0.707107 0.707107
-0.000000 -0.707107 -0.707107
0.707107 -0.707107 0.000000
-0.707107 0.707107 -0.000000
0.707107 0.000000 0.707107
-0.707107 -0.000000 -0.707107
0.000000 -0.707107 -0.707107
-0.000000 0.707107 0.707107
-0.000000 -0.707107 -0.707107
0.000000 0.707107 0.707107
0.707107 0.707107 -0.000000
-0.707107 -0.707107 0.000000
-0.000000 0.707107 -0.707107
0.000000 -0.707107 0.707107
-0.707107 0.000000 0.707107
0.707107 -0.000000 -0.707107
-0.000000 0.707107 0.707107
-0.000000 -0.707107 -0.707107
-0.000000 -0.707107 -0.707107
0.000000 0.707107 0.707107
-0.000000 0.707107 -0.707107
-0.707107 -0.707107 -0.000000
0.707107 0.000000 0.707107
-0.707107 -0.707107 -0.000000
0.707107 0.707107 0.000000
-0.707107 0.000000 0.707107
0.707107 0.000000 -0.707107
-0.000000 0.707107 -0.707107
0.000000 -0.707107 0.707107
0.707107 0.707107 0.000000
-0.707107 -0.000000 0.707107
-0.000000 -0.707107 -0.707107
0.707107 -0.000000 0.707107
-0.707107 0.000000 -0.707107
0.000000 0.707107 0.707107
-0.000000 -0.707107 -0.707107
-0.707107 -0.707107 0.000000
0.707107 0.707107 -0.000000
-0.707107 -0.000000 0.707107
0.707107 -0.000000 -0.707107
-0.707107 -0.000000 0.707107
0.707107 0.000000 -0.707107
0.707107 -0.707107 -0.000000
-0.707107 0.707107 0.000000
-0.707107 -0.707107 0.000000
0.707107 0.707107 0.000000
0.707107 0.000000 -0.707107
-0.707107 -0.000000 0.707107
0.707107 0.000000 -0.707107
-0.707107 0.000000 0.707107
-0.707107 0.000000 -0.707107
0.707107 -0.000000 0.707107
0.707107 -0.707107 0.000000
-0.707107 0.707107 0.000000
0.707107 0.000000 -0.707107
-0.707107 -0.000000 0.707107
-0.707107 -0.707107 0.000000
0.707107 0.707107 -0.000000
-0.707107 0.707107 -0.000000
0.707107 -0.707107 -0.000000
0.000000 -0.707107 -0.707107
-0.000000 0.707107 0.707107
0.707107 -0.000000 0.707107
-0.707107 -0.000000 -0.707107
0.707107 0.000000 0.707107
0.000000 0.707107 -0.707107
-0.707107 -0.707107 -0.000000
0.000000 0.707107 0.707107
-0.000000 -0.707107 -0.707107
0.000000 0.707107 -0.707107
0.707107 -0.000000 0.707107
-0.707107 -0.707107 -0.000000
0.707107 0.707107 -0.000000
-0.707107 -0.707107 0.000000
-0.707107 0.000000 0.707107
0.707107 0.000000 -0.707107
0.707107 0.707107 0.000000
-0.000000 -0.707107 -0.707107
-0.707107 0.000000 0.707107
-0.707107 0.707107 -0.000000
0.707107 -0.707107 0.000000
-0.707107 0.707107 -0.000000
0.707107 -0.707107 0.000000
-0.707107 -0.000000 -0.707107
0.707107 -0.000000 0.707107
-0.707107 0.707107 -0.000000
0.707107 -0.707107 0.000000
0.707107 -0.000000 -0.707107
-0.707107 -0.000000 0.707107
0.707107 -0.000000 -0.707107
-0.707107 -0.707107 0.000000
0.000000 0.707107 0.707107
0.707107 0.707107 0.000000
-0.707107 -0.707107 0.000000
-0.000000 0.707107 0.707107
0.000000 -0.707107 -0.707107
-0.707107 -0.000000 0.707107
0.707107 0.000000 -0.707107
0.707107 -0.707107 -0.000000
-0.707107 0.707107 0.000000
-0.707107 -0.707107 -0.000000
0.707107 0.707107 -0.000000
-0.707107 0.707107 0.000000
0.707107 -0.707107 0.000000
-0.000000 0.707107 0.707107
0.707107 0.707107 0.000000
-0.707107 -0.707107 -0.000000
0.000000 -0.707107 -0.707107
-0.707107 -0.707107 -0.000000
0.707107 0.707107 -0.000000
0.707107 0.000000 -0.707107
-0.707107 -0.000000 0.707107
-0.000000 -0.707107 0.707107
0.000000 0.707107 -0.707107
0.707107 -0.707107 0.000000
-0.707107 0.707107 -0.000000
-0.000000 -0.707107 0.707107
0.000000 0.707107 -0.707107
-0.707107 -0.707107 0.000000
0.707107 0.707107 0.000000
0.000000 0.707107 0.707107
0.000000 -0.707107 -0.707107
0.707107 0.000000 -0.707107
-0.707107 -0.000000 0.707107
-0.000000 0.707107 -0.707107
-0.000000 -0.707107 0.707107
0.707107 0.707107 -0.000000
-0.707107 -0.707107 -0.000000
-0.707107 -0.000000 -0.707107
0.707107 0.000000 0.707107
0.707107 0.707107 -0.000000
-0.707107 -0.707107 -0.000000
-0.707107 -0.707107 -0.000000
0.000000 -0.707107 0.707107
-0.000000 0.707107 -0.707107
-0.000000 0.707107 -0.707107
0.707107 -0.000000 0.707107
-0.707107 -0.000000 -0.707107
-0.707107 0.000000 -0.707107
0.707107 0.000000 0.707107
-0.707107 0.000000 0.707107
0.707107 -0.000000 -0.707107
-0.707107 -0.707107 -0.000000
0.707107 0.707107 -0.000000
-0.707107 -0.000000 0.707107
0.707107 0.000000 -0.707107
-0.707107 -0.000000 -0.707107
0.707107 0.000000 0.707107
0.707107 0.000000 0.707107
0.707107 0.707107 -0.000000
-0.707107 -0.707107 -0.000000
0.707107 -0.707107 0.000000
-0.707107 0.707107 0.000000
0.707107 0.707107 -0.000000
-0.707107 -0.707107 0.000000
1.414214 0.000000 0.000000
-1.414214 -0.000000 -0.000000
-0.707107 -0.000000 0.707107
0.707107 -0.000000 -0.707107
0.707107 -0.000000 -0.707107
-0.707107 0.000000 -0.707107
0.707107 0.000000 0.707107
0.707107 -0.707107 -0.000000
-0.707107 0.707107 -0.000000
0.707107 -0.000000 0.707107
-0.707107 -0.000000 -0.707107
-0.707107 0.000000 -0.707107
0.707107 -0.000000 0.707107
-0.707107 -0.707107 -0.000000
-0.000000 0.707107 0.707107
0.707107 0.000000 -0.707107
-0.707107 0.000000 0.707107
0.707107 -0.000000 -0.707107
-0.707107 -0.000000 0.707107
0.707107 0.000000 -0.707107
0.707107 0.000000 0.707107
-0.707107 0.000000 -0.707107
0.707107 0.707107 0.000000
-0.707107 -0.707107 0.000000
-0.707107 0.000000 -0.707107
0.707107 -0.707107 -0.000000
-0.707107 0.707107 -0.000000
-0.707107 -0.707107 -0.000000
0.707107 0.707107 -0.000000
-0.707107 0.707107 0.000000
0.707107 -0.707107 -0.000000
0.707107 -0.707107 -0.000000
-0.707107 0.707107 0.000000
-0.707107 -0.707107 -0.000000
0.707107 0.707107 0.000000
0.000000 -0.707107 -0.707107
-0.707107 0.707107 -0.000000
-0.707107 -0.707107 -0.000000
0.707107 0.707107 -0.000000
0.000000 -0.707107 0.707107
0.000000 0.707107 -0.707107
-0.707107 -0.707107 0.000000
0.707107 0.707107 -0.000000
-0.000000 -0.707107 -0.707107
-0.000000 0.707107 0.707107
0.707107 -0.000000 0.707107
-0.707107 0.000000 -0.707107
-0.707107 -0.000000 0.707107
0.707107 0.000000 -0.707107
0.707107 0.707107 -0.000000
-0.707107 -0.707107 -0.000000
0.707107 -0.707107 0.000000
-0.707107 0.707107 0.000000
0.707107 0.707107 0.000000
-0.707107 -0.707107 -0.000000
-0.707107 0.000000 0.707107
0.707107 -0.707107 -0.000000
0.707107 -0.707107 -0.000000
0.000000 0.707107 -0.707107
-0.707107 -0.000000 -0.707107
0.707107 -0.000000 0.707107
0.000000 0.707107 0.707107
0.000000 -0.707107 -0.707107
-0.707107 -0.707107 -0.000000
0.707107 0.000000 0.707107
0.000000 0.707107 -0.707107
-0.707107 0.000000 -0.707107
0.707107 0.000000 0.707107
-0.707107 0.000000 -0.707107
0.707107 -0.000000 0.707107
0.000000 -0.707107 0.707107
0.707107 0.000000 -0.707107
-0.707107 0.707107 0.000000
-0.000000 -0.707107 -0.707107
-0.000000 0.707107 0.707107
0.707107 0.707107 0.000000
-0.707107 -0.707107 0.000000
-0.000000 0.707107 -0.707107
0.707107 0.000000 0.707107
-0.707107 -0.707107 -0.000000
-0.707107 -0.707107 0.000000
0.707107 0.707107 -0.000000
-0.000000 -0.707107 -0.707107
0.000000 0.707107 0.707107
0.707107 0.000000 -0.707107
-0.707107 -0.000000 0.707107
0.707107 -0.000000 0.707107
-0.707107 0.000000 -0.707107
0.000000 0.707107 0.707107
0.707107 -0.707107 0.000000
-0.707107 0.000000 -0.707107
0.707107 -0.707107 0.000000
-0.707107 0.707107 0.000000
-0.707107 0.000000 -0.707107
0.707107 0.000000 0.707107
0.707107 -0.707107 -0.000000
-0.707107 0.707107 0.000000
0.707107 -0.000000 0.707107
-0.707107 -0.000000 -0.707107
0.707107 0.000000 -0.707107
-0.707107 0.000000 0.707107
0.000000 0.707107 0.707107
-0.000000 -0.707107 -0.707107
-0.000000 -0.707107 -0.707107
-0.707107 -0.707107 -0.000000
0.707107 0.707107 -0.000000
-0.000000 0.707107 0.707107
-0.000000 -0.707107 -0.707107
-0.707107 0.707107 -0.000000
0.707107 -0.707107 0.000000
-0.707107 0.707107 0.000000
0.707107 -0.707107 -0.000000
0.707107 0.000000 -0.707107
-0.707107 -0.000000 0.707107
-0.000000 0.707107 0.707107
0.000000 -0.707107 -0.707107
0.707107 0.707107 0.000000
-0.707107 -0.707107 -0.000000
0.000000 0.707107 0.707107
0.000000 -0.707107 -0.707107
0.000000 -0.707107 -0.707107
0.000000 0.707107 0.707107
-0.707107 -0.000000 -0.707107
0.707107 0.707107 -0.000000
0.000000 -0.707107 0.707107
-0.707107 -0.000000 -0.707107
0.707107 -0.000000 0.707107
-0.000000 -0.707107 0.707107
0.707107 0.707107 0.000000
-0.707107 0.000000 -0.707107
0.707107 -0.707107 0.000000
-0.707107 0.707107 -0.000000
-0.707107 0.000000 -0.707107
0.707107 0.000000 0.707107
0.707107 -0.707107 0.000000
-0.707107 0.707107 0.000000
-0.707107 0.707107 0.000000
0.707107 -0.707107 0.000000
-0.000000 0.707107 -0.707107
0.000000 -0.707107 0.707107
-0.000000 0.707107 0.707107
0.000000 -0.707107 -0.707107
0.000000 0.707107 -0.707107
-0.000000 -0.707107 0.707107
0.707107 -0.707107 -0.000000
-0.707107 0.000000 -0.707107
0.000000 0.707107 0.707107
0.707107 -0.707107 -0.000000
-0.707107 0.707107 0.000000
0.707107 -0.707107 0.000000
-0.707107 0.707107 -0.000000
-0.000000 0.707107 0.707107
0.000000 -0.707107 -0.707107
0.707107 -0.707107 -0.000000
-0.707107 0.707107 0.000000
-0.707107 0.000000 0.707107
0.000000 0.707107 -0.707107
0.707107 -0.707107 -0.000000
-0.000000 -0.707107 -0.707107
-0.000000 0.707107 0.707107
0.000000 0.707107 -0.707107
-0.000000 -0.707107 0.707107
-0.000000 -0.707107 0.707107
-0.000000 0.707107 -0.707107
-0.000000 -0.707107 0.707107
0.000000 0.707107 -0.707107
0.707107 -0.000000 0.707107
-0.707107 0.000000 -0.707107
0.707107 0.000000 0.707107
-0.707107 -0.000000 -0.707107
0.000000 -0.707107 0.707107
0.000000 0.707107 -0.707107
-0.000000 -0.707107 0.707107
-0.000000 0.707107 -0.707107
0.000000 0.707107 0.707107
0.000000 -0.707107 -0.707107
0.707107 -0.000000 -0.707107
-0.707107 -0.000000 0.707107
0.707107 0.707107 -0.000000
-0.707107 -0.707107 0.000000
0.000000 0.707107 0.707107
0.707107 -0.707107 -0.000000
-0.707107 0.707107 0.000000
0.000000 -0.707107 -0.707107
0.707107 0.000000 -0.707107
-0.707107 0.000000 0.707107
0.707107 -0.000000 0.707107
-0.707107 0.000000 -0.707107
0.707107 0.000000 0.707107
-0.000000 0.707107 -0.707107
-0.707107 -0.707107 0.000000
-0.000000 -0.707107 -0.707107
0.000000 0.707107 0.707107
0.707107 -0.707107 -0.000000
-0.707107 0.707107 0.000000
-0.707107 -0.707107 0.000000
0.707107 0.707107 -0.000000
0.707107 -0.707107 -0.000000
-0.707107 0.707107 0.000000
-0.707107 0.000000 0.707107
0.707107 -0.000000 -0.707107
0.707107 0.000000 -0.707107
-0.000000 -0.707107 0.707107
-0.707107 0.707107 -0.000000
-0.707107 -0.000000 -0.707107
-0.707107 -0.000000 -0.707107
0.707107 -0.000000 0.707107
-0.000000 0.707107 0.707107
0.000000 -0.707107 -0.707107
-0.707107 0.000000 -0.707107
0.707107 -0.000000 0.707107
0.707107 0.707107 -0.000000
-0.707107 -0.707107 0.000000
0.707107 -0.000000 0.707107
-0.707107 0.000000 -0.707107
-0.707107 0.707107 0.000000
0.707107 -0.707107 -0.000000
-0.707107 -0.000000 0.707107
0.707107 0.000000 -0.707107
0.707107 0.000000 0.707107
-0.707107 -0.000000 -0.707107
0.000000 0.707107 -0.707107
0.000000 -0.707107 0.707107
-0.707107 0.000000 -0.707107
0.707107 0.000000 0.707107
0.707107 0.000000 0.707107
-0.707107 -0.000000 -0.707107
0.000000 -0.707107 0.707107
-0.000000 0.707107 -0.707107
-0.000000 -0.707107 -0.707107
0.000000 0.707107 0.707107
-0.000000 0.707107 0.707107
-0.000000 -0.707107 -0.707107
-0.000000 0.707107 -0.707107
0.000000 -0.707107 0.707107
0.000000 0.707107 -0.707107
-0.000000 -0.707107 0.707107
0.707107 0.000000 -0.707107
-0.000000 -0.707107 0.707107
-0.707107 -0.000000 0.707107
-0.707107 -0.000000 -0.707107
0.707107 -0.000000 0.707107
-0.707107 -0.000000 -0.707107
0.707107 0.000000 0.707107
-0.000000 0.707107 0.707107
-0.000000 -0.707107 -0.707107
0.000000 0.707107 0.707107
0.707107 -0.707107 0.000000
-0.707107 0.000000 -0.707107
0.707107 0.000000 -0.707107
-0.707107 0.707107 0.000000
0.000000 -0.707107 0.707107
-0.000000 -0.707107 -0.707107
0.000000 0.707107 0.707107
0.000000 0.707107 0.707107
-0.707107 -0.000000 0.707107
0.707107 0.000000 -0.707107
0.000000 0.707107 -0.707107
-0.000000 -0.707107 0.707107
-0.707107 -0.707107 0.000000
0.707107 0.707107 -0.000000
0.707107 -0.707107 -0.000000
-0.707107 0.707107 0.000000
0.707107 0.707107 -0.000000
-0.707107 -0.707107 -0.000000
-0.707107 -0.000000 -0.707107
0.707107 0.000000 0.707107
0.000000 -0.707107 0.707107
0.000000 0.707107 -0.707107
-0.707107 -0.000000 0.707107
0.707107 -0.000000 -0.707107
0.707107 -0.000000 -0.707107
-0.707107 -0.000000 0.707107
0.000000 0.707107 0.707107
-0.000000 -0.707107 -0.707107
0.000000 0.707107 0.707107
0.000000 -0.707107 -0.707107
-0.707107 0.707107 0.000000
0.707107 -0.707107 -0.000000
0.000000 -0.707107 -0.707107
-0.000000 0.707107 0.707107
-0.707107 -0.000000 -0.707107
0.707107 -0.000000 0.707107
0.707107 -0.707107 0.000000
-0.707107 0.000000 0.707107
-0.000000 0.707107 -0.707107
-0.707107 -0.707107 0.000000
0.707107 0.707107 -0.000000
-0.707107 0.000000 -0.707107
0.707107 -0.000000 0.707107
0.707107 -0.000000 0.707107
-0.707107 -0.000000 -0.707107
-0.000000 -0.707107 -0.707107
0.000000 0.707107 0.707107
-0.000000 0.707107 0.707107
-0.000000 -0.707107 -0.707107
0.707107 0.000000 0.707107
-0.707107 -0.000000 -0.707107
0.000000 -0.707107 0.707107
-0.000000 0.707107 -0.707107
-0.707107 -0.707107 -0.000000
0.707107 0.707107 -0.000000
0.707107 -0.707107 -0.000000
0.707107 -0.707107 -0.000000
-0.707107 0.707107 0.000000
-0.707107 0.707107 -0.000000
-0.000000 -0.707107 0.707107
0.707107 0.000000 -0.707107
0.707107 0.000000 0.707107
-0.707107 -0.000000 -0.707107
0.707107 0.707107 -0.000000
-0.707107 -0.707107 0.000000
-0.707107 -0.000000 -0.707107
0.707107 0.000000 0.707107
-0.707107 -0.000000 -0.707107
-0.707107 -0.000000 0.707107
0.707107 0.000000 -0.707107
-0.707107 0.000000 -0.707107
-0.707107 0.000000 0.707107
0.707107 -0.000000 -0.707107
0.707107 -0.000000 -0.707107
-0.707107 0.000000 0.707107
0.707107 -0.707107 -0.000000
-0.707107 0.707107 -0.000000
-0.707107 0.000000 -0.707107
0.000000 -0.707107 0.707107
0.707107 0.707107 -0.000000
0.000000 1.414214 0.000000
-0.000000 -1.414214 -0.000000
-0.707107 0.000000 -0.707107
0.707107 -0.000000 0.707107
0.000000 0.707107 0.707107
-0.707107 0.000000 -0.707107
0.707107 -0.707107 0.000000
0.707107 -0.707107 0.000000
0.000000 0.707107 -0.707107
0.000000 0.707107 -0.707107
-0.707107 0.000000 0.707107
-0.707107 -0.000000 0.707107
0.707107 -0.000000 -0.707107
0.707107 -0.000000 -0.707107
-0.707107 0.000000 0.707107
0.707107 -0.707107 0.000000
-0.707107 0.707107 -0.000000
0.000000 -0.707107 -0.707107
-0.000000 0.707107 0.707107
0.000000 0.707107 -0.707107
-0.000000 -0.707107 0.707107
-0.000000 0.707107 0.707107
-0.707107 -0.707107 0.000000
-0.000000 -0.707107 -0.707107
0.707107 0.707107 -0.000000
0.707107 0.000000 0.707107
-0.707107 -0.000000 -0.707107
0.000000 0.707107 -0.707107
-0.000000 -0.707107 0.707107
-0.000000 -0.707107 -0.707107
-0.000000 0.707107 0.707107
0.707107 0.000000 0.707107
-0.707107 -0.000000 -0.707107
0.707107 0.707107 -0.000000
-0.707107 -0.707107 -0.000000
0.707107 0.000000 0.707107
-0.707107 -0.000000 -0.707107
0.707107 -0.000000 -0.707107
-0.707107 0.000000 0.707107
0.707107 0.707107 -0.000000
-0.707107 -0.707107 0.000000
0.707107 -0.707107 0.000000
-0.707107 0.707107 -0.000000
0.000000 -0.707107 0.707107
-0.000000 0.707107 -0.707107
0.000000 0.707107 -0.707107
-0.000000 -0.707107 0.707107
-0.000000 0.707107 0.707107
-0.000000 -0.707107 -0.707107
-0.707107 -0.707107 -0.000000
0.000000 -0.707107 -0.707107
0.000000 0.707107 0.707107
0.707107 0.000000 0.707107
-0.707107 0.000000 -0.707107
0.707107 -0.707107 -0.000000
-0.707107 0.707107 0.000000
-0.000000 -0.707107 0.707107
0.707107 0.707107 0.000000
-0.707107 0.000000 -0.707107
0.707107 0.000000 0.707107
-0.707107 -0.000000 -0.707107
-0.707107 -0.707107 0.000000
-0.707107 0.707107 0.000000
0.707107 -0.707107 -0.000000
-0.000000 -0.707107 0.707107
0.000000 0.707107 -0.707107
0.707107 0.000000 0.707107
-0.707107 -0.000000 -0.707107
-0.707107 -0.000000 -0.707107
0.000000 -0.707107 0.707107
-0.000000 0.707107 -0.707107
-0.000000 0.707107 -0.707107
0.000000 -0.707107 0.707107
-0.707107 -0.707107 0.000000
0.707107 0.707107 -0.000000
-0.000000 -0.707107 0.707107
-0.000000 0.707107 -0.707107
-0.707107 -0.707107 0.000000
0.000000 -0.707107 -0.707107
0.000000 0.707107 0.707107
0.707107 0.707107 -0.000000
-0.707107 -0.000000 -0.707107
0.707107 -0.000000 0.707107
0.707107 -0.000000 0.707107
0.707107 -0.000000 0.707107
-0.707107 0.000000 -0.707107
-0.707107 -0.707107 -0.000000
0.707107 0.707107 -0.000000
-0.707107 -0.000000 -0.707107
0.707107 0.000000 0.707107
0.707107 -0.707107 0.000000
-0.707107 0.707107 -0.000000
-0.707107 -0.000000 0.707107
0.707107 0.000000 -0.707107
0.707107 0.707107 -0.000000
-0.707107 -0.707107 0.000000
-0.000000 -0.707107 -0.707107
0.707107 0.707107 0.000000
-0.707107 0.000000 0.707107
-0.707107 -0.707107 0.000000
0.707107 0.707107 -0.000000
-0.707107 -0.000000 -0.707107
0.707107 -0.707107 0.000000
0.000000 0.707107 0.707107
0.707107 -0.000000 0.707107
-0.707107 0.000000 -0.707107
-0.000000 -0.707107 0.707107
-0.000000 0.707107 -0.707107
0.000000 -0.707107 -0.707107
0.000000 0.707107 0.707107
0.707107 -0.707107 0.000000
-0.707107 0.707107 -0.000000
-0.000000 0.707107 0.707107
-0.000000 -0.707107 -0.707107
0.000000 -0.707107 0.707107
0.000000 0.707107 -0.707107
0.707107 -0.000000 0.707107
-0.707107 0.000000 -0.707107
-0.000000 -0.707107 0.707107
0.000000 0.707107 -0.707107
0.707107 -0.707107 0.000000
-0.707107 0.707107 0.000000
-0.000000 -0.707107 -0.707107
0.707107 0.000000 0.707107