# vtk DataFile Version 3.0
Configuration exported from OpenDiS
ASCII
DATASET UNSTRUCTURED_GRID
POINTS 12710 FLOAT
-29412.000000 -29412.000000 -29412.000000
29412.000000 -29412.000000 -29412.000000
-29412.000000 29412.000000 -29412.000000
-29412.000000 -29412.000000 29412.000000
29412.000000 29412.000000 -29412.000000
29412.000000 -29412.000000 29412.000000
-29412.000000 29412.000000 29412.000000
29412.000000 29412.000000 29412.000000
-7870.722031 -2562.605226 -17483.105868
-6339.645694 -2837.114212 -15677.520546
-7870.722031 -2562.605226 -17483.105868
-10105.080416 -2437.788016 -19842.281464
-29411.991585 21757.391155 -2123.393649
-27708.487783 21757.391155 -3826.897450
-29411.991585 21757.391155 -2123.393649
-29412.000000 21757.391155 -2123.385249
29411.999988 21757.391155 -2123.385249
27539.440297 21757.391155 -254.069403
20293.657720 9474.438341 25167.959903
20293.657720 7665.456531 23359.399981
20293.657720 9474.438341 25167.959903
20293.657720 11259.604773 26952.913824
3136.300766 -15609.292191 490.128646
6052.220155 -15530.362060 3327.117905
3136.300766 -15609.292191 490.128646
759.067871 -15437.632765 -2058.763674
28954.442102 -24805.772261 -1841.041188
28425.676196 -26538.282581 -4102.317414
28954.442102 -24805.772261 -1841.041188
29224.924661 -23276.594843 -41.381211
28765.309739 -24482.342988 18962.804306
25006.121454 -25838.696391 16559.969424
28765.309739 -24482.342988 18962.804306
29411.999997 -24266.535789 19393.687365
-29411.999991 -24266.535789 19393.687365
-28817.669146 -24068.201461 19789.683894
-14487.807285 11939.337130 16223.558675
-16369.736709 12965.490114 19131.641082
-14487.807285 11939.337130 16223.558675
-14128.832602 11515.541522 15440.788383
7903.311157 -20808.468798 -1709.746668
7925.628745 -20872.161858 -1668.371197
7903.311157 -20808.468798 -1709.746668
11258.278469 -20845.318598 -5101.563780
7903.311157 -20808.468798 -1709.746668
4366.846978 -20808.468798 1824.384434
-2580.732853 -12646.285404 8661.127445
-792.507417 -12646.285404 6872.902008
-2580.732853 -12646.285404 8661.127445
-4361.400376 -12646.285404 10441.794967
3813.566591 25638.080578 -1012.728637
7271.489384 25638.080578 -4470.651430
3813.566591 25638.080578 -1012.728637
397.703719 25638.080578 2406.557532
8379.079138 6708.903848 26209.326870
11222.989798 9060.611324 26701.530053
8379.079138 6708.903848 26209.326870
5957.409623 4531.671910 25964.889293
-12940.495951 8919.897088 11656.807298
-12372.649856 7266.792739 9435.856854
-12940.495951 8919.897088 11656.807298
-14128.832602 11515.541522 15440.788383
-25980.873858 -19708.912960 23197.343358
-28332.938530 -21072.472430 24185.848559
-25980.873858 -19708.912960 23197.343358
-26566.306947 -18689.386844 22763.250331
-25980.873858 -19708.912960 23197.343358
-25224.827915 -20030.865875 22763.250331
-699.066905 -3409.086539 -4504.415332
-2899.905441 -3409.086539 -6705.253868
-699.066905 -3409.086539 -4504.415332
1164.830167 -3409.086539 -2640.147487
-19497.975164 -11327.781694 8738.532157
-19406.511286 -12173.522772 7984.254957
-19497.975164 -11327.781694 8738.532157
-19859.564846 -10337.696532 9367.027637
21397.370778 22996.901681 -24418.124813
23308.717407 22996.901681 -26329.471442
21397.370778 22996.901681 -24418.124813
19325.685893 22996.901681 -22345.956851
-17231.334001 19339.951023 -18001.836468
-17231.334001 22627.799416 -14713.934313
-17231.334001 19339.951023 -18001.836468
-17231.334001 17557.498987 -19784.288502
-13804.647338 23168.998159 24840.158582
-12839.696751 21917.744112 24553.855122
-13804.647338 23168.998159 24840.158582
-16195.684687 26832.411549 26112.534623
-28179.760422 -22099.142461 20966.948189
-26566.306947 -19153.301967 22299.335207
-28179.760422 -22099.142461 20966.948189
-28894.612136 -23846.780824 19934.161540
-16788.708225 27135.739598 17411.774393
-15185.258398 27219.674506 15892.259475
-16788.708225 27135.739598 17411.774393
-19946.672466 27429.347343 20863.346379
-15403.578175 18117.970724 23317.963158
-16369.736709 16186.107052 22352.258020
-15403.578175 18117.970724 23317.963158
-13931.821696 20473.648975 24201.884929
4022.279605 6561.364606 -28480.229946
3132.829600 6037.580533 -27066.995869
4022.279605 6561.364606 -28480.229946
4500.165680 7015.248586 -29412.000002
4500.165680 7015.248586 29411.999986
5237.614922 7715.659028 27974.140313
9746.625252 18148.450961 23736.640749
11501.028853 18281.423220 25358.072091
9746.625252 18148.450961 23736.640749
6851.795629 17867.251941 21123.010146
23308.717407 22996.901681 -26329.471442
26391.245970 22996.901681 -29412.000006
26391.245970 22996.901681 29411.999983
26521.240393 22996.901681 29282.005572
-17012.756856 28318.586841 -27150.415460
-19046.325532 29411.999996 -28090.570981
-19046.325532 -29411.999992 -28090.570981
-20318.260182 -28728.103710 -28678.609337
-17012.756856 28318.586841 -27150.415460
-17012.756856 29411.999996 -26057.002305
-17012.756856 -29411.999992 -26057.002305
-17012.756856 -28828.918248 -25473.920549
-17012.756856 28318.586841 -27150.415460
-19773.879708 25636.434442 -27071.445008
22874.944717 -11421.514558 -6093.781554
21096.433188 -11421.514558 -7872.293083
22874.944717 -11421.514558 -6093.781554
24650.038938 -11421.514558 -4318.687332
-14924.376325 -15840.016200 672.934888
-13843.107515 -19390.791441 -1796.571544
-14924.376325 -15840.016200 672.934888
-15598.191850 -14133.550827 1705.584735
13783.805241 10904.221758 4692.434551
15196.145536 10904.221758 3280.094255
13783.805241 10904.221758 4692.434551
13164.214373 10299.622259 5916.624918
13783.805241 10904.221758 4692.434551
14526.071389 12172.396569 5218.343213
-12059.956951 -25129.038875 -5751.668414
-12877.916471 -22794.417908 -4235.006967
-12059.956951 -25129.038875 -5751.668414
-9516.651645 -26530.922412 -4610.246645
-12059.956951 -25129.038875 -5751.668414
-13707.234408 -25981.987592 -8251.894587
13709.602859 -10342.343405 -19801.067755
13012.774478 -13207.372587 -21969.268555
13709.602859 -10342.343405 -19801.067755
14007.400984 -7017.957630 -16774.480104
4718.872750 -6756.121270 12078.404113
4718.872750 -3620.391867 15214.133517
4718.872750 -6756.121270 12078.404113
4718.872750 -8554.414164 10280.111219
3404.334767 -16106.514525 4986.021338
4323.428406 -18262.976994 6223.390169
3404.334767 -16106.514525 4986.021338
2124.102455 -12818.592362 2978.331487
-16788.530965 24262.056682 -15898.418813
-18848.860333 24262.056682 -17958.748181
-16788.530965 24262.056682 -15898.418813
-15019.920266 24262.056682 -14129.808114
11510.016937 -19216.745951 -7959.242258
10874.158694 -18691.212469 -6797.850534
11510.016937 -19216.745951 -7959.242258
11954.620266 -18859.791733 -8760.799805
-6581.960710 19859.320468 -9615.198193
-9908.187415 16533.093762 -9615.198193
-6581.960710 19859.320468 -9615.198193
-4797.620947 21643.660235 -9615.198193
-25132.598341 -13819.594095 -27067.969098
-27721.721845 -11831.316183 -27668.814691
-25132.598341 -13819.594095 -27067.969098
-22166.896515 -15629.550474 -25912.223652
22558.047402 7990.787937 -27430.657552
24333.239435 9765.979970 -27430.657552
22558.047402 7990.787937 -27430.657552
20775.447541 6208.188076 -27430.657552
-27565.374557 25482.540720 -22846.621940
-29412.000003 27329.166166 -22846.621940
29411.999985 27329.166166 -22846.621940
27743.244750 28997.921413 -22846.621940
-27565.374557 25482.540720 -22846.621940
-25674.590280 23591.756443 -22846.621940
12370.379640 20111.465524 12371.391676
13397.826437 17097.623141 10384.996090
12370.379640 20111.465524 12371.391676
12073.889932 21473.902400 13437.338843
-13388.238965 -10747.981493 -7563.328269
-13175.753702 -13086.813015 -10114.645054
-13388.238965 -10747.981493 -7563.328269
-13691.003086 -8510.786848 -5023.369503
26299.980233 25760.049704 13800.018422
25030.805925 24558.679185 13867.822211
26299.980233 25760.049704 13800.018422
29387.232623 29004.740997 13957.457326
-9073.522403 18415.722570 19537.391147
-9392.038851 20388.447811 21191.599939
-9073.522403 18415.722570 19537.391147
-8782.656682 16256.671414 17669.205711
-19658.797228 -2314.947208 23769.713176
-18552.161138 -3301.922966 25863.325024
-19658.797228 -2314.947208 23769.713176
-20749.477367 -1375.579950 21739.665779
-20243.874164 25882.604496 -5427.140297
-18478.935163 23885.671145 -5659.134647
-20243.874164 25882.604496 -5427.140297
-23564.620004 28788.165543 -5842.325090
-13022.834801 -15694.459641 -12875.210581
-13175.753702 -13086.813015 -10114.645054
-13022.834801 -15694.459641 -12875.210581
-12839.696751 -16986.419186 -14350.308176
20775.447541 6208.188076 -27430.657552
17852.094362 3284.834897 -27430.657552
-23195.628156 -18377.140935 23676.183356
-22557.526471 -17877.035524 23538.187082
-23195.628156 -18377.140935 23676.183356
-21516.852151 -16496.575843 20116.842259
-23195.628156 -18377.140935 23676.183356
-21652.869538 -18789.294564 25631.095604
14114.967308 8594.030382 2051.081108
13727.458121 6968.584062 813.143974
14114.967308 8594.030382 2051.081108
15196.145536 10904.221758 3280.094255
-6519.688831 -12682.614129 -23329.422570
-6519.688830 -9682.805390 -26329.231309
-6519.688831 -12682.614129 -23329.422570
-6519.688831 -14456.585929 -21555.450769
-17514.615126 8189.067964 -9566.918776
-16869.809449 6553.367600 -11847.424817
-17514.615126 8189.067964 -9566.918776
-18013.805982 9634.788904 -7622.006980
-13983.706399 -5965.473024 -2185.352366
-13691.003086 -8510.786848 -5023.369503
-13983.706399 -5965.473024 -2185.352366
-14035.331476 -4633.640150 -801.894414
4108.247711 12714.114400 -8485.404986
4235.411116 14263.228236 -9907.355417
4108.247711 12714.114400 -8485.404986
4383.592621 10218.519654 -5714.465329
-2899.905441 -3409.086539 -6705.253868
-3741.607291 -3409.086539 -7545.715179
-14035.331476 -4633.640150 -801.894414
-13985.024040 -1942.971126 1838.467173
8948.898684 4978.563117 22404.094740
7981.223665 5814.342936 20600.639901
8948.898684 4978.563117 22404.094740
8534.230620 3760.056958 21600.256646
8948.898684 4978.563117 22404.094740
8948.898684 1478.975706 25903.682151
23755.898067 -24648.219589 17366.646715
[...]
CELL_DATA 6352
VECTORS Burgers FLOAT
0.000000 0.000000 0.000000
0.707107 0.707107 0.000000
-0.707107 -0.707107 0.000000
0.707107 -0.000000 0.707107
-0.707107 0.000000 -0.707107
-0.707107 0.000000 -0.707107
0.000000 -0.707107 0.707107
0.000000 0.707107 -0.707107
-0.707107 0.000000 -0.707107
0.707107 0.000000 0.707107
-0.707107 0.707107 -0.000000
0.707107 -0.707107 0.000000
0.707107 0.000000 0.707107
-0.707107 0.000000 -0.707107
-0.707107 0.000000 -0.707107
-0.000000 -0.707107 -0.707107
0.000000 0.707107 0.707107
-0.000000 0.707107 -0.707107
-0.707107 -0.707107 0.000000
0.707107 0.000000 0.707107
-0.707107 0.000000 -0.707107
0.707107 0.000000 0.707107
-0.707107 0.000000 -0.707107
0.707107 0.000000 0.707107
-0.707107 -0.000000 -0.707107
0.707107 -0.000000 0.707107
0.000000 0.707107 0.707107
0.000000 -0.707107 -0.707107
0.707107 0.000000 -0.707107
0.000000 -0.707107 0.707107
-0.707107 0.707107 0.000000
0.707107 -0.000000 -0.707107
-0.707107 0.000000 0.707107
0.707107 -0.000000 0.707107
-0.707107 0.000000 -0.707107
-0.707107 0.000000 -0.707107
0.707107 0.000000 0.707107
-0.000000 0.707107 -0.707107
0.000000 -0.707107 0.707107
-0.000000 0.707107 0.707107
0.000000 -0.707107 -0.707107
0.000000 -0.707107 -0.707107
-0.000000 0.707107 0.707107
-0.000000 0.707107 0.707107
0.000000 -0.707107 -0.707107
0.000000 0.707107 0.707107
-0.000000 -0.707107 -0.707107
0.707107 -0.707107 0.000000
-0.707107 0.707107 0.000000
-0.707107 0.707107 0.000000
-0.000000 0.707107 -0.707107
-0.000000 -0.707107 0.707107
-0.707107 -0.000000 -0.707107
-0.707107 -0.000000 -0.707107
0.707107 -0.707107 -0.000000
0.707107 -0.707107 -0.000000
0.000000 0.707107 -0.707107
0.000000 0.707107 -0.707107
-0.707107 0.000000 0.707107
0.707107 0.000000 -0.707107
-0.707107 -0.000000 0.707107
0.000000 0.707107 0.707107
-0.000000 -0.707107 -0.707107
-0.707107 0.707107 -0.000000
-0.000000 -0.707107 0.707107
0.707107 0.000000 -0.707107
0.000000 -0.707107 -0.707107
-0.707107 0.707107 0.000000
0.707107 0.000000 0.707107
-0.707107 -0.707107 -0.000000
0.707107 0.707107 -0.000000
-0.000000 0.707107 -0.707107
-0.000000 -0.707107 0.707107
-0.707107 0.707107 -0.000000
0.707107 -0.707107 -0.000000
0.707107 -0.000000 -0.707107
-0.707107 -0.000000 0.707107
0.707107 0.000000 -0.707107
-0.707107 0.000000 0.707107
-0.707107 0.707107 -0.000000
0.707107 -0.707107 -0.000000
0.707107 -0.707107 -0.000000
-0.707107 0.707107 -0.000000
0.707107 -0.707107 -0.000000
-0.707107 0.707107 0.000000
-0.707107 -0.707107 -0.000000
-0.707107 -0.707107 -0.000000
0.707107 0.707107 0.000000
0.707107 0.000000 0.707107
-0.707107 -0.000000 -0.707107
0.000000 0.707107 0.707107
0.000000 -0.707107 -0.707107
0.000000 0.707107 0.707107
-0.000000 -0.707107 -0.707107
0.707107 -0.707107 0.000000
-0.707107 0.707107 -0.000000
0.707107 0.000000 0.707107
-0.707107 -0.000000 -0.707107
0.000000 -0.707107 -0.707107
-0.000000 0.707107 0.707107
-0.000000 -0.707107 -0.707107
0.000000 0.707107 0.707107
-0.707107 0.707107 0.000000
0.707107 -0.000000 -0.707107
-0.707107 0.707107 -0.000000
0.000000 -0.707107 0.707107
-0.707107 0.000000 0.707107
0.707107 -0.000000 -0.707107
-0.000000 0.707107 0.707107
-0.000000 -0.707107 -0.707107
-0.707107 -0.707107 -0.000000
0.707107 0.707107 -0.000000
0.000000 0.707107 0.707107
-0.000000 -0.707107 -0.707107
-0.707107 -0.707107 -0.000000
0.707107 0.707107 0.000000
0.707107 0.000000 -0.707107
0.000000 -0.707107 -0.707107
0.707107 0.707107 0.000000
-0.707107 -0.000000 0.707107
-0.000000 -0.707107 -0.707107
0.000000 0.707107 -0.707107
-0.000000 -0.707107 0.707107
0.000000 0.707107 0.707107
0.000000 -0.707107 -0.707107
-0.707107 -0.707107 0.000000
0.707107 0.707107 -0.000000
-0.707107 -0.000000 0.707107
0.707107 -0.000000 -0.707107
-0.707107 -0.000000 0.707107
0.707107 0.000000 -0.707107
0.707107 -0.000000 0.707107
-0.707107 0.000000 -0.707107
-0.707107 -0.707107 0.000000
0.707107 0.707107 0.000000
0.707107 0.000000 -0.707107
-0.707107 -0.000000 0.707107
0.707107 0.000000 -0.707107
-0.707107 0.000000 0.707107
-0.707107 0.000000 -0.707107
0.707107 -0.000000 0.707107
0.707107 -0.707107 0.000000
-0.707107 0.707107 0.000000
0.707107 0.000000 -0.707107
-0.707107 -0.000000 0.707107
0.707107 0.707107 -0.000000
0.707107 0.707107 -0.000000
-0.707107 -0.707107 -0.000000
0.000000 -0.707107 -0.707107
0.000000 -0.707107 -0.707107
-0.000000 0.707107 0.707107
0.707107 -0.000000 0.707107
-0.707107 -0.000000 -0.707107
-0.707107 -0.707107 -0.000000
0.000000 0.707107 -0.707107
0.707107 -0.000000 -0.707107
0.707107 -0.000000 -0.707107
0.000000 0.707107 0.707107
-0.707107 -0.707107 0.000000
0.000000 0.707107 -0.707107
0.707107 -0.000000 0.707107
-0.707107 -0.707107 0.000000
0.707107 0.707107 -0.000000
-0.707107 -0.707107 0.000000
-0.707107 0.000000 0.707107
0.707107 0.000000 -0.707107
-0.707107 -0.000000 -0.707107
0.707107 0.000000 0.707107
-0.707107 0.707107 -0.000000
0.707107 -0.707107 0.000000
0.707107 -0.707107 0.000000
-0.707107 0.707107 -0.000000
0.707107 -0.707107 0.000000
0.707107 -0.000000 0.707107
-0.707107 -0.000000 0.707107
-0.707107 -0.000000 0.707107
0.707107 -0.707107 0.000000
-0.000000 0.707107 -0.707107
-0.000000 0.707107 -0.707107
0.707107 -0.000000 -0.707107
-0.707107 -0.000000 0.707107
0.707107 -0.000000 -0.707107
-0.707107 -0.707107 0.000000
0.000000 0.707107 0.707107
0.707107 0.707107 0.000000
-0.707107 -0.707107 0.000000
0.707107 -0.707107 -0.000000
0.707107 -0.707107 -0.000000
-0.707107 0.707107 0.000000
-0.707107 -0.000000 0.707107
0.707107 0.000000 -0.707107
-0.707107 0.000000 -0.707107
0.707107 0.000000 0.707107
-0.707107 -0.707107 -0.000000
0.707107 0.707107 -0.000000
-0.707107 0.707107 0.000000
0.707107 -0.707107 0.000000
0.707107 -0.000000 -0.707107
-0.707107 -0.000000 0.707107
-0.707107 -0.707107 -0.000000
0.707107 0.707107 -0.000000
0.707107 0.000000 -0.707107
-0.707107 -0.000000 0.707107
0.000000 -1.414214 0.000000
0.000000 1.414214 0.000000
0.707107 -0.707107 0.000000
-0.707107 0.707107 -0.000000
-0.000000 -0.707107 0.707107
0.000000 0.707107 -0.707107
-0.707107 -0.707107 0.000000
0.707107 0.707107 0.000000
-0.000000 -0.707107 0.707107
0.000000 0.707107 -0.707107
0.707107 0.000000 -0.707107
-0.707107 -0.000000 0.707107
-0.000000 0.707107 -0.707107
-0.000000 -0.707107 0.707107
0.707107 0.707107 -0.000000
-0.707107 -0.707107 -0.000000
-0.707107 -0.000000 -0.707107
0.707107 0.000000 0.707107
-0.000000 0.707107 -0.707107
0.000000 -0.707107 0.707107
0.000000 -0.707107 0.707107
-0.000000 0.707107 -0.707107
-0.000000 0.707107 -0.707107
0.707107 -0.000000 0.707107
-0.707107 -0.000000 -0.707107
-0.707107 0.000000 -0.707107
0.707107 0.000000 0.707107
-0.000000 0.707107 0.707107
0.000000 -0.707107 -0.707107
-0.707107 -0.707107 -0.000000
0.707107 0.707107 -0.000000
-0.707107 0.000000 -0.707107
-0.707107 -0.000000 -0.707107
0.707107 0.000000 0.707107
0.707107 0.707107 -0.000000
-0.707107 -0.707107 -0.000000
0.707107 -0.707107 0.000000
-0.707107 0.707107 0.000000
0.707107 -0.000000 -0.707107
-0.707107 -0.000000 0.707107
1.414214 0.000000 0.000000
-1.414214 -0.000000 -0.000000
-0.707107 -0.000000 0.707107
-0.707107 -0.000000 0.707107
0.707107 -0.000000 -0.707107
-0.707107 0.000000 -0.707107
0.707107 0.000000 0.707107
-0.707107 0.707107 -0.000000
0.707107 -0.000000 0.707107
-0.707107 -0.000000 -0.707107
-0.000000 -0.707107 -0.707107
0.000000 0.707107 0.707107
-0.000000 0.707107 0.707107
-0.707107 -0.707107 -0.000000
0.707107 0.000000 -0.707107
0.000000 0.707107 -0.707107
-0.000000 -0.707107 0.707107
-0.707107 -0.707107 0.000000
0.707107 -0.000000 0.707107
0.000000 0.707107 -0.707107
0.707107 0.000000 0.707107
-0.707107 0.000000 -0.707107
0.707107 0.707107 0.000000
-0.707107 -0.707107 0.000000
-0.707107 0.000000 -0.707107
0.707107 -0.707107 -0.000000
-0.707107 0.707107 -0.000000
-0.707107 -0.707107 -0.000000
0.707107 0.707107 -0.000000
-0.707107 0.707107 0.000000
0.707107 -0.707107 -0.000000
0.707107 -0.707107 -0.000000
-0.707107 0.707107 0.000000
0.707107 0.707107 0.000000
0.000000 0.707107 0.707107
-0.707107 -0.707107 -0.000000
0.707107 0.707107 -0.000000
0.000000 0.707107 -0.707107
-0.707107 -0.000000 -0.707107
-0.707107 -0.000000 -0.707107
0.707107 0.000000 0.707107
-0.000000 -0.707107 -0.707107
-0.000000 0.707107 0.707107
0.707107 -0.000000 0.707107
-0.707107 0.000000 -0.707107
0.000000 -0.707107 -0.707107
0.000000 0.707107 0.707107
0.000000 0.707107 0.707107
0.000000 0.707107 0.707107
0.707107 0.707107 -0.000000
-0.707107 -0.707107 -0.000000
0.707107 -0.707107 0.000000
-0.707107 0.707107 0.000000
-0.707107 -0.000000 0.707107
0.707107 -0.000000 -0.707107
-0.707107 0.000000 0.707107
0.707107 -0.707107 -0.000000
0.707107 -0.707107 -0.000000
0.000000 0.707107 -0.707107
-0.707107 -0.000000 -0.707107
0.707107 -0.000000 0.707107
0.000000 0.707107 0.707107
0.000000 -0.707107 -0.707107
-0.707107 -0.707107 -0.000000
0.707107 0.000000 0.707107
0.000000 0.707107 -0.707107
0.707107 0.000000 0.707107
-0.000000 -0.707107 0.707107
0.000000 -0.707107 0.707107
0.707107 0.000000 -0.707107
-0.707107 0.707107 0.000000
-0.000000 -0.707107 -0.707107
-0.000000 0.707107 0.707107
0.707107 0.707107 0.000000
-0.707107 -0.707107 0.000000
-0.707107 0.000000 0.707107
-0.707107 0.000000 0.707107
0.707107 -0.000000 -0.707107
-0.707107 0.000000 -0.707107
0.707107 0.000000 0.707107
-0.000000 -0.707107 -0.707107
0.000000 0.707107 0.707107
0.707107 0.000000 -0.707107
-0.707107 -0.000000 0.707107
0.707107 -0.000000 0.707107
-0.707107 0.000000 -0.707107
0.707107 0.000000 -0.707107
0.707107 -0.707107 0.000000
-0.707107 0.707107 0.000000
0.707107 0.000000 0.707107
0.000000 -0.707107 0.707107
0.707107 0.000000 -0.707107
-0.707107 0.000000 -0.707107
0.707107 0.000000 -0.707107
-0.707107 0.000000 0.707107
-0.000000 1.414214 -0.000000
-0.707107 -0.707107 -0.000000
0.707107 0.707107 -0.000000
-0.000000 0.707107 0.707107
-0.000000 -0.707107 -0.707107
-0.707107 0.707107 -0.000000
0.707107 -0.707107 0.000000
-0.707107 0.707107 0.000000
0.707107 -0.707107 -0.000000
0.707107 0.000000 -0.707107
-0.707107 -0.000000 0.707107
-0.707107 -0.000000 0.707107
-0.707107 0.707107 0.000000
0.707107 -0.707107 0.000000
0.707107 -0.707107 0.000000
0.707107 0.707107 0.000000
-0.707107 -0.707107 -0.000000
0.000000 0.707107 0.707107
0.000000 -0.707107 -0.707107
0.000000 0.707107 0.707107
-0.707107 -0.000000 -0.707107
0.707107 0.707107 -0.000000
0.000000 -0.707107 0.707107
-0.707107 -0.000000 -0.707107
0.707107 -0.000000 0.707107
0.000000 -0.707107 0.707107
0.707107 -0.707107 0.000000
-0.707107 0.707107 -0.000000
-0.707107 0.000000 -0.707107
0.707107 0.000000 0.707107
0.707107 -0.707107 0.000000
-0.707107 0.707107 0.000000
-0.707107 0.707107 0.000000
0.707107 -0.707107 0.000000
-0.000000 0.707107 -0.707107
0.000000 -0.707107 0.707107
0.000000 -0.707107 0.707107
0.707107 -0.707107 0.000000
-0.707107 0.707107 -0.000000
0.707107 -0.707107 -0.000000
-0.707107 0.707107 0.000000
-0.707107 0.707107 0.000000
0.707107 -0.707107 -0.000000
0.000000 0.707107 0.707107
-0.707107 0.000000 -0.707107
-0.707107 0.707107 0.000000
0.707107 -0.707107 0.000000
-0.707107 0.707107 -0.000000
0.707107 -0.707107 -0.000000
-0.707107 0.707107 -0.000000
0.707107 -0.707107 -0.000000
-0.707107 0.707107 0.000000
-0.707107 0.000000 0.707107
0.707107 -0.707107 -0.000000
0.000000 0.707107 -0.707107
-0.000000 -0.707107 -0.707107
-0.000000 0.707107 0.707107
-0.707107 -0.000000 0.707107
0.707107 0.000000 -0.707107
-0.707107 -0.000000 0.707107
0.707107 -0.000000 -0.707107
-0.000000 -0.707107 0.707107
0.000000 0.707107 -0.707107
-0.707107 -0.707107 -0.000000
0.707107 -0.000000 -0.707107
0.000000 0.707107 0.707107
0.707107 0.000000 0.707107
-0.707107 -0.000000 -0.707107
0.707107 0.000000 0.707107
-0.707107 -0.000000 -0.707107
0.000000 0.707107 0.707107
0.000000 -0.707107 -0.707107
0.707107 -0.000000 -0.707107
-0.707107 -0.000000 0.707107
-0.000000 -0.707107 0.707107
-0.000000 0.707107 -0.707107
-0.707107 0.707107 -0.000000
-0.707107 0.707107 -0.000000
0.707107 -0.707107 0.000000
-0.707107 0.000000 0.707107
-0.707107 0.000000 -0.707107
0.707107 0.000000 0.707107
-0.000000 0.707107 -0.707107
-0.707107 -0.707107 0.000000
-0.000000 -0.707107 -0.707107
0.000000 0.707107 0.707107
0.707107 -0.707107 -0.000000
0.707107 -0.707107 -0.000000
-0.707107 0.707107 0.000000
-0.707107 0.707107 0.000000
-0.707107 -0.707107 0.000000
0.707107 0.707107 -0.000000
0.707107 -0.707107 -0.000000
-0.707107 0.707107 0.000000
-0.707107 0.000000 0.707107
0.707107 0.707107 -0.000000
0.707107 -0.707107 0.000000
0.707107 -0.707107 0.000000
-0.707107 0.707107 0.000000
-0.707107 -0.000000 -0.707107
-0.707107 -0.000000 -0.707107
0.707107 -0.000000 0.707107
-0.707107 -0.707107 -0.000000
-0.707107 0.000000 -0.707107
0.707107 -0.000000 0.707107
0.707107 0.707107 -0.000000
-0.707107 -0.707107 0.000000
-0.000000 -0.707107 0.707107
-0.000000 0.707107 -0.707107
-0.707107 0.707107 0.000000
0.707107 -0.707107 -0.000000
0.707107 -0.707107 0.000000
-0.707107 0.707107 0.000000
0.000000 0.707107 -0.707107
-0.000000 -0.707107 0.707107
0.000000 -0.707107 0.707107
0.000000 0.707107 -0.707107
-0.707107 0.000000 -0.707107
0.707107 0.000000 0.707107
0.000000 -0.707107 0.707107
-0.000000 0.707107 -0.707107
0.000000 -0.707107 0.707107
-0.000000 0.707107 -0.707107
-0.000000 -0.707107 -0.707107
0.000000 0.707107 0.707107
-0.000000 0.707107 0.707107
-0.000000 -0.707107 -0.707107
-0.000000 0.707107 -0.707107
0.000000 -0.707107 0.707107
0.000000 0.707107 -0.707107
-0.000000 -0.707107 0.707107
0.707107 0.000000 0.707107
-0.707107 0.000000 -0.707107
-0.707107 -0.000000 -0.707107
0.707107 -0.000000 0.707107
0.000000 -0.707107 -0.707107
-0.707107 0.707107 -0.000000
-0.000000 0.707107 0.707107
-0.000000 -0.707107 -0.707107
0.000000 0.707107 -0.707107
0.000000 -0.707107 0.707107
0.707107 -0.000000 -0.707107
-0.707107 0.707107 0.000000
0.000000 -0.707107 0.707107
-0.000000 -0.707107 -0.707107
0.000000 0.707107 0.707107
0.000000 0.707107 0.707107
0.000000 0.707107 -0.707107
0.000000 0.707107 -0.707107
-0.000000 -0.707107 0.707107
-0.000000 -0.707107 0.707107
0.000000 0.707107 -0.707107
0.707107 -0.707107 -0.000000
-0.707107 0.707107 0.000000
0.707107 0.707107 -0.000000
-0.707107 -0.707107 -0.000000
-0.000000 0.707107 -0.707107
-0.707107 -0.000000 0.707107
0.707107 -0.707107 0.000000
0.000000 -0.707107 0.707107
0.000000 0.707107 -0.707107
-0.707107 -0.000000 0.707107
0.707107 -0.000000 -0.707107
0.707107 -0.000000 -0.707107
0.707107 -0.000000 -0.707107
-0.707107 -0.000000 0.707107
0.000000 0.707107 -0.707107
0.000000 -0.707107 0.707107
0.000000 -0.707107 0.707107
0.000000 0.707107 0.707107
0.000000 -0.707107 -0.707107
0.000000 -0.707107 -0.707107
-0.000000 0.707107 0.707107
-0.707107 -0.000000 -0.707107
0.707107 -0.000000 0.707107
0.000000 0.707107 -0.707107
-0.707107 -0.000000 -0.707107
0.707107 -0.000000 0.707107
0.707107 -0.000000 0.707107
0.707107 -0.000000 0.707107
-0.707107 0.707107 -0.000000
0.707107 -0.707107 0.000000
0.000000 0.707107 0.707107
-0.000000 0.707107 0.707107
-0.000000 0.707107 0.707107
-0.000000 -0.707107 -0.707107
-0.707107 -0.707107 -0.000000
0.707107 0.707107 0.000000
-0.000000 -0.707107 0.707107
0.000000 0.707107 -0.707107
-0.707107 -0.707107 -0.000000
0.707107 0.707107 -0.000000
-0.707107 0.707107 0.000000
-0.000000 -0.707107 0.707107
-0.707107 0.707107 -0.000000
0.707107 0.000000 -0.707107
-0.000000 0.707107 0.707107
-0.000000 0.707107 0.707107
0.000000 -0.707107 -0.707107
0.707107 0.707107 -0.000000
-0.707107 -0.707107 0.000000
0.707107 0.000000 -0.707107
-0.707107 -0.000000 0.707107
-0.707107 -0.000000 -0.707107
0.000000 -0.707107 0.707107
0.707107 -0.000000 -0.707107
-0.707107 0.707107 -0.000000
-0.707107 0.000000 -0.707107
-0.707107 0.000000 -0.707107
0.707107 0.000000 0.707107
-0.707107 0.000000 0.707107
0.707107 -0.000000 -0.707107
0.707107 -0.707107 -0.000000
-0.707107 0.707107 -0.000000
0.707107 0.707107 -0.000000
-0.707107 0.000000 -0.707107
0.000000 -0.707107 0.707107
0.000000 -0.707107 -0.707107
-0.707107 0.000000 -0.707107
0.707107 -0.000000 0.707107
0.707107 -0.000000 0.707107
0.707107 -0.707107 0.000000
0.000000 0.707107 0.707107
-0.707107 0.000000 -0.707107
-0.707107 0.000000 0.707107
-0.707107 0.000000 0.707107
0.000000 0.707107 -0.707107
0.000000 0.707107 -0.707107
0.707107 -0.707107 0.000000
-0.707107 -0.000000 0.707107
0.707107 -0.000000 -0.707107
0.707107 -0.000000 -0.707107
-0.707107 0.000000 0.707107
-0.707107 -0.707107 0.000000
0.000000 0.707107 0.707107
0.000000 0.707107 -0.707107
-0.000000 -0.707107 0.707107
-0.707107 -0.707107 -0.000000
0.707107 0.707107 0.000000
0.707107 0.000000 0.707107
-0.707107 -0.000000 -0.707107
0.000000 0.707107 -0.707107
-0.000000 -0.707107 0.707107
-0.000000 -0.707107 -0.707107
-0.000000 0.707107 0.707107
0.707107 0.000000 0.707107
-0.707107 -0.000000 -0.707107
0.707107 0.707107 -0.000000
-0.707107 -0.707107 -0.000000
0.707107 0.000000 0.707107
-0.707107 -0.000000 -0.707107
0.707107 -0.000000 -0.707107
-0.707107 0.000000 0.707107
0.707107 0.707107 -0.000000
-0.707107 -0.707107 0.000000
0.707107 -0.707107 0.000000
0.707107 -0.707107 0.000000
-0.707107 0.707107 -0.000000
0.000000 -0.707107 0.707107
-0.000000 0.707107 -0.707107
0.000000 0.707107 -0.707107
-0.000000 -0.707107 0.707107
-0.000000 0.707107 0.707107
-0.000000 -0.707107 -0.707107
-0.000000 -0.707107 -0.707107
-0.000000 -0.707107 -0.707107
-0.707107 -0.000000 -0.707107
0.000000 -0.707107 -0.707107
0.000000 0.707107 0.707107
0.707107 0.000000 0.707107
-0.707107 0.000000 -0.707107
0.707107 -0.707107 -0.000000
-0.707107 0.707107 0.000000
-0.000000 -0.707107 0.707107
0.707107 0.707107 0.000000
0.707107 0.000000 0.707107
-0.707107 -0.000000 -0.707107
-0.707107 -0.707107 0.000000
-0.707107 0.707107 0.000000
0.707107 -0.707107 -0.000000
-0.000000 -0.707107 0.707107
0.000000 0.707107 -0.707107
0.707107 0.000000 0.707107
-0.707107 -0.000000 -0.707107
0.000000 0.707107 -0.707107
-0.000000 -0.707107 0.707107
-0.000000 -0.707107 0.707107
-0.000000 0.707107 -0.707107
0.000000 -0.707107 0.707107
-0.707107 0.707107 0.000000
0.707107 -0.707107 -0.000000
-0.000000 -1.414214 -0.000000
0.000000 0.707107 0.707107
0.000000 0.707107 -0.707107
0.000000 -0.707107 -0.707107
-0.000000 0.707107 0.707107
0.707107 -0.000000 0.707107
0.707107 -0.000000 0.707107
0.707107 -0.000000 0.707107
-0.707107 0.000000 -0.707107
-0.707107 0.000000 -0.707107
-0.707107 -0.707107 -0.000000
0.707107 0.707107 -0.000000
0.707107 0.000000 0.707107
-0.707107 0.000000 0.707107
0.707107 0.000000 -0.707107
-0.707107 -0.000000 0.707107
0.707107 0.000000 -0.707107
-0.000000 -0.707107 0.707107
0.707107 0.707107 0.000000
0.707107 0.707107 0.000000
-0.000000 -0.707107 -0.707107
-0.707107 0.000000 0.707107
0.000000 0.707107 0.707107
0.707107 0.000000 0.707107
-0.707107 -0.000000 -0.707107
-0.707107 -0.000000 -0.707107
0.707107 -0.707107 0.000000
0.000000 0.707107 0.707107
-0.707107 0.000000 -0.707107
0.000000 -0.707107 -0.707107
0.000000 0.707107 0.707107
-0.000000 -0.707107 0.707107
0.000000 0.707107 -0.707107
-0.000000 0.707107 0.707107
-0.000000 -0.707107 -0.707107
0.000000 -0.707107 0.707107
0.000000 0.707107 -0.707107
0.707107 -0.000000 0.707107
-0.707107 0.000000 -0.707107
0.000000 -0.707107 -0.707107
0.000000 -0.707107 -0.707107
0.000000 0.707107 0.707107
0.000000 0.707107 0.707107
0.707107 -0.707107 0.000000
-0.707107 0.707107 0.000000
-0.000000 -0.707107 -0.707107
0.707107 0.000000 0.707107
-0.707107 0.707107 0.000000
0.707107 -0.000000 -0.707107
-0.707107 -0.000000 0.707107
0.707107 0.000000 0.707107
-0.707107 -0.000000 -0.707107
0.707107 -0.707107 -0.000000
-0.707107 0.707107 -0.000000
-0.707107 0.000000 -0.707107
0.707107 -0.000000 0.707107
-0.707107 -0.707107 0.000000
0.707107 -0.707107 0.000000
-0.707107 0.707107 0.000000
0.707107 -0.707107 -0.000000
-0.707107 0.707107 -0.000000
0.000000 -0.707107 0.707107
0.000000 0.707107 -0.707107
-0.000000 -0.707107 0.707107
-0.000000 0.707107 -0.707107
-0.000000 0.707107 -0.707107
-0.000000 0.707107 -0.707107
-0.000000 -0.707107 0.707107
-0.000000 0.707107 -0.707107
-0.707107 0.000000 0.707107
-0.707107 0.000000 0.707107