# vtk DataFile Version 3.0
Configuration exported from OpenDiS
ASCII
DATASET UNSTRUCTURED_GRID
POINTS 40206 FLOAT
-29412.000000 -29412.000000 -29412.000000
29412.000000 -29412.000000 -29412.000000
-29412.000000 29412.000000 -29412.000000
-29412.000000 -29412.000000 29412.000000
29412.000000 29412.000000 -29412.000000
29412.000000 -29412.000000 29412.000000
-29412.000000 29412.000000 29412.000000
29412.000000 29412.000000 29412.000000
-3343.518098 -2112.393966 14264.895519
-3749.879124 -958.833983 13517.696562
-3343.518098 -2112.393966 14264.895519
-3113.095395 -2666.242398 14588.321248
9922.299200 11114.623304 23959.844731
8867.280771 11152.249560 25052.489416
9922.299200 11114.623304 23959.844731
11185.963516 12378.287628 23959.844723
9922.299200 11114.623304 23959.844731
9759.516934 10306.173590 24605.512180
20293.657720 9324.227381 25021.162434
20293.657720 8673.859798 24374.681440
20293.657720 9324.227381 25021.162434
20293.657720 9921.189749 25615.637791
189.990684 -11056.461818 -11280.064276
-301.892937 -10582.987206 -11280.064276
189.990684 -11056.461818 -11280.064276
1148.551513 -12031.172980 -11280.064276
15323.214846 -15089.550158 -17313.547024
15642.914295 -15998.059508 -17902.356926
15323.214846 -15089.550158 -17313.547024
14980.702403 -14285.902426 -16852.411736
-303.072605 15663.362397 9791.204281
444.037019 15615.573904 10586.116187
-303.072605 15663.362397 9791.204281
-1022.510075 15779.563364 8955.538267
-25172.946343 19186.696120 -27430.657551
-24726.482312 19693.220811 -27430.657551
-25172.946343 19186.696120 -27430.657551
-26082.772670 18192.322295 -27430.657551
22289.600578 24989.417511 28019.307104
21397.818133 25881.199956 28019.307104
22289.600578 24989.417511 28019.307104
23065.300832 24213.717257 28019.307104
9548.435072 7541.521620 -28928.804508
8662.329964 8426.536746 -28928.804508
9548.435072 7541.521620 -28928.804508
10044.339538 7051.377071 -28928.804508
3812.319278 25638.080578 -1011.484367
4134.256197 25638.080578 -1334.123966
3812.319278 25638.080578 -1011.484367
2957.241262 25638.080578 -155.546324
-20644.926632 24473.241799 -11122.618610
-19819.612411 24388.312279 -10382.233908
-20644.926632 24473.241799 -11122.618610
-21370.869372 24605.159052 -11716.644096
12458.273381 15131.380108 10095.862220
11945.582194 13892.114828 10822.436313
12458.273381 15131.380108 10095.862220
13183.862629 16013.204286 9939.627290
-3905.477899 -11191.224555 -24826.817405
-3711.666574 -10878.213422 -24319.994946
-3905.477899 -11191.224555 -24826.817405
-4315.476372 -11602.895302 -25648.486624
-10222.489790 -25170.428615 5007.836937
-9985.691179 -24902.496841 4503.106551
-10222.489790 -25170.428615 5007.836937
-10888.554216 -24877.653785 5381.126533
-10222.489790 -25170.428615 5007.836937
-9639.938122 -26190.996755 5445.853409
-17005.691046 -10784.678542 -19786.779340
-17663.279123 -11478.707433 -19786.779340
-17005.691046 -10784.678542 -19786.779340
-16306.373435 -10068.649270 -19786.779340
25650.930977 -3037.975240 -11613.975023
26542.313422 -3885.493128 -11570.110465
25650.930977 -3037.975240 -11613.975023
24556.630494 -2854.617790 -12524.918055
20498.938223 27813.261527 29052.488764
20945.809927 27716.736277 28702.142309
20498.938223 27813.261527 29052.488764
20222.363891 27253.408165 28216.061071
20498.938223 27813.261527 29052.488764
19836.738771 28490.192865 29067.220650
13386.382430 15710.947477 -658.365667
13386.382430 16389.728146 -1337.146337
13386.382430 15710.947477 -658.365667
13386.282698 15037.397714 15.080423
18958.938564 7646.392690 15539.461093
19431.501805 7558.287735 15923.920893
18958.938564 7646.392690 15539.461093
18406.021388 7863.211482 15203.362241
-25967.827109 -9634.790996 -21751.063604
-25572.697347 -10252.618022 -22764.020393
-25967.827109 -9634.790996 -21751.063604
-25372.203257 -9789.836283 -21310.485039
-25967.827109 -9634.790996 -21751.063604
-25598.343356 -8485.037146 -20970.793508
-26956.083888 27892.896240 21304.471393
-27651.001828 27953.941962 20670.599173
-26956.083888 27892.896240 21304.471393
-26214.014726 27759.108475 21912.752789
-15064.246284 622.377177 8969.893635
-14846.144712 261.212999 8390.627884
-15064.246284 622.377177 8969.893635
-15184.061889 805.248786 9272.580849
18051.642633 -23773.289430 -6117.908501
17922.405639 -24510.851492 -6984.707560
18051.642633 -23773.289430 -6117.908501
18263.743447 -23076.813932 -5209.332187
-26143.377012 23227.013610 15213.549511
-26790.678213 23537.615771 15550.248552
-26143.377012 23227.013610 15213.549511
-25497.130497 22911.129008 14883.187598
23678.958951 16932.480310 -2736.752978
24058.747095 16082.768031 -3206.677113
23678.958951 16932.480310 -2736.752978
23269.665537 17782.004261 -2296.522441
-5846.817286 15370.877952 -10901.417577
-5419.575936 15486.375588 -10589.673863
-5846.817286 15370.877952 -10901.417577
-6247.981737 15162.597225 -11094.301301
18534.556966 -8459.555580 25490.633204
18301.526180 -9551.181980 26349.228818
18534.556966 -8459.555580 25490.633204
19081.806338 -6979.781477 24558.108473
-1896.443921 -9019.509274 20037.431360
-2623.186810 -9132.644857 19197.552889
-1896.443921 -9019.509274 20037.431360
-1285.607841 -8653.712787 21014.012566
-11509.747234 10554.257469 -21943.542998
-11450.693899 11072.416108 -22402.648302
-11509.747234 10554.257469 -21943.542998
-11275.789527 9701.379993 -20856.707816
-18536.176284 -15748.751907 -8515.542441
-18636.967687 -14858.775823 -9506.309929
-18536.176284 -15748.751907 -8515.542441
-18310.778370 -16507.463491 -7531.432944
19162.175963 -15837.651104 17176.079359
19643.148739 -15438.011738 18056.691501
19162.175963 -15837.651104 17176.079359
19083.188500 -15999.534444 16935.208555
-16610.860957 -24745.814682 10722.742410
-17060.879720 -24621.388801 11297.187053
-16610.860957 -24745.814682 10722.742410
-15796.406870 -24815.050321 9839.052683
-9189.962356 -7920.136216 -27955.359682
-9080.935579 -8567.635823 -27198.833298
-9189.962356 -7920.136216 -27955.359682
-9239.352160 -7346.102469 -28578.783234
-2222.718443 -23761.702646 -12132.846963
-2371.461137 -23458.936794 -11978.846329
-2222.718443 -23761.702646 -12132.846963
-2915.497427 -23476.677797 -13110.650796
-2222.718443 -23761.702646 -12132.846963
-1632.048785 -23735.919101 -11516.393760
5918.972185 25075.139884 21263.997119
5264.105089 25079.082343 20613.072482
5918.972185 25075.139884 21263.997119
5319.143266 24324.670520 21414.637563
5918.972185 25075.139884 21263.997119
5949.907806 25083.203442 21193.671749
-13280.645264 11197.811237 -22846.621940
-14673.950680 12590.206010 -22846.621940
-13280.645264 11197.811237 -22846.621940
-12545.215500 10516.359286 -22900.599752
-13280.645264 11197.811237 -22846.621940
-12062.105397 10871.177509 -21301.448345
-6396.439263 12214.074678 12585.450474
-6124.556164 11729.097507 11828.590204
-6396.439263 12214.074678 12585.450474
-6875.551392 12663.422235 13513.910159
11141.836635 7961.142707 -2613.828678
9913.288117 7159.492523 -2186.930344
11141.836635 7961.142707 -2613.828678
12181.312797 8975.743000 -2638.704547
-17551.964221 12827.210012 -26142.910758
-17771.470186 13630.308623 -25559.318112
-17551.964221 12827.210012 -26142.910758
-17404.888649 11470.652751 -27352.392448
27977.145852 18687.073235 21711.489892
29183.544243 18669.902144 22900.717191
27977.145852 18687.073235 21711.489892
27446.149401 18846.706936 21340.127141
2292.597565 -18822.903794 4455.064639
2483.439514 -19224.835949 4666.154845
2292.597565 -18822.903794 4455.064639
2093.937029 -18315.435101 4146.256482
-12014.464615 -4261.759537 26479.385073
-11424.235329 -3391.384312 26759.531012
-12014.464615 -4261.759537 26479.385073
-12556.875904 -4740.148290 26543.407609
-27273.889357 -5735.478223 -1299.243975
-27273.889357 -4890.222398 -461.783405
-27273.889357 -5735.478223 -1299.243975
-27273.889357 -6639.911648 -2200.218538
-18576.203769 -27164.064224 25888.991816
-19903.437867 -26150.563859 25575.258084
-18576.203769 -27164.064224 25888.991816
-17501.322482 -28196.307220 25946.116542
-2363.091255 26382.365527 3255.486168
-2200.608370 25726.190047 2761.793574
-2363.091255 26382.365527 3255.486168
-2636.791155 27027.480908 3626.901650
24666.328971 24086.253003 14525.651214
25424.483828 24162.227899 15359.780968
24666.328971 24086.253003 14525.651214
23914.437753 24062.111390 13749.618383
4857.092687 -25652.976997 14656.334371
4857.092687 -26979.513507 13339.573579
4857.092687 -25652.976997 14656.334371
4857.092687 -25159.344353 15149.552092
-16391.553469 -23436.572320 25761.325432
-17012.738786 -23525.542141 26293.540927
-16391.553469 -23436.572320 25761.325432
-15855.971683 -23359.364468 25302.951498
27295.666284 25068.101155 -12323.229260
28309.328669 24064.912943 -12323.229260
27295.666284 25068.101155 -12323.229260
26557.969977 25799.115202 -12323.229260
-2765.167735 26460.667670 2931.711832
-2594.135588 25841.586886 2483.663195
-2765.167735 26460.667670 2931.711832
-2982.760185 27041.523731 3294.975444
8815.372495 -10730.632727 -7759.804658
9214.362700 -11034.566110 -7664.747836
8815.372495 -10730.632727 -7759.804658
8144.018737 -10273.943659 -7974.469348
-28390.498328 27769.874876 -28822.914999
-28370.210863 28379.247346 -29412.000003
-28370.210863 28379.247346 29411.999985
-28350.438222 28973.156070 28837.863914
-28390.498328 27769.874876 -28822.914999
-28969.104514 27804.067244 -28278.501181
-28390.498328 27769.874876 -28822.914999
-29307.692902 26801.777272 -28772.011969
-21728.536913 -138.460790 17697.291312
-22646.001808 377.011198 17295.298405
-21728.536913 -138.460790 17697.291312
-20900.799703 -691.491534 17971.997778
19108.014335 1676.442217 -633.699997
19760.238749 1441.264076 -216.653724
19108.014335 1676.442217 -633.699997
18467.583270 2031.571265 -919.002014
8948.898684 4978.562683 22404.094307
8812.272291 4841.936290 22404.094307
8948.898684 4978.562683 22404.094307
8948.898684 4137.219702 23245.351189
-13373.460107 -18720.196328 20018.415914
-14570.370870 -18202.918222 20698.048562
-13373.460107 -18720.196328 20018.415914
-12393.702038 -19538.636900 19857.098426
[...]
CELL_DATA 20100
VECTORS Burgers FLOAT
0.000000 0.000000 0.000000
0.707107 -0.707107 -0.000000
-0.707107 0.707107 0.000000
-0.707107 -0.000000 0.707107
0.707107 -0.707107 0.000000
-0.000000 0.707107 -0.707107
0.000000 -0.707107 0.707107
0.000000 0.707107 -0.707107
-0.707107 -0.707107 -0.000000
0.707107 0.707107 0.000000
0.000000 0.707107 0.707107
-0.000000 -0.707107 -0.707107
-0.707107 0.000000 -0.707107
0.707107 -0.000000 0.707107
0.707107 -0.707107 0.000000
-0.707107 0.707107 0.000000
-0.707107 -0.707107 0.000000
0.707107 0.707107 -0.000000
0.707107 0.707107 0.000000
-0.707107 -0.707107 -0.000000
-0.707107 0.000000 -0.707107
0.707107 0.000000 0.707107
-0.707107 -0.000000 -0.707107
0.707107 0.000000 0.707107
-0.707107 -0.000000 -0.707107
0.707107 0.000000 0.707107
-0.707107 0.000000 -0.707107
0.707107 -0.000000 0.707107
-0.707107 0.000000 0.707107
0.707107 -0.707107 -0.000000
0.000000 0.707107 -0.707107
-0.707107 0.707107 -0.000000
0.707107 -0.707107 0.000000
0.000000 0.707107 0.707107
-0.000000 -0.707107 -0.707107
-0.707107 0.707107 0.000000
0.707107 0.000000 0.707107
-0.000000 -0.707107 -0.707107
0.000000 0.707107 0.707107
-0.000000 -0.707107 -0.707107
0.000000 -0.707107 -0.707107
-0.000000 0.707107 0.707107
0.707107 0.707107 -0.000000
0.000000 -0.707107 -0.707107
-0.707107 -0.000000 0.707107
-0.707107 0.000000 -0.707107
0.707107 -0.000000 0.707107
-0.707107 -0.000000 0.707107
0.707107 0.000000 -0.707107
0.000000 -0.707107 -0.707107
-0.000000 0.707107 0.707107
0.707107 -0.707107 0.000000
-0.707107 0.707107 -0.000000
-0.000000 0.707107 0.707107
0.000000 -0.707107 -0.707107
-0.000000 -0.707107 0.707107
0.000000 0.707107 -0.707107
0.000000 0.707107 -0.707107
-0.000000 -0.707107 0.707107
-0.000000 0.707107 0.707107
0.000000 -0.707107 -0.707107
0.707107 0.000000 0.707107
-0.707107 -0.000000 -0.707107
0.707107 -0.000000 0.707107
-0.707107 -0.000000 -0.707107
-0.707107 0.707107 0.000000
0.707107 -0.707107 -0.000000
-0.707107 0.000000 0.707107
0.707107 -0.000000 -0.707107
-0.000000 0.707107 -0.707107
0.000000 -0.707107 0.707107
0.000000 -0.707107 -0.707107
0.707107 0.000000 0.707107
-0.707107 0.707107 0.000000
0.707107 -0.000000 0.707107
-0.707107 -0.707107 -0.000000
0.000000 0.707107 -0.707107
-0.707107 -0.707107 -0.000000
0.000000 0.707107 -0.707107
0.707107 -0.000000 0.707107
0.000000 0.707107 0.707107
-0.000000 -0.707107 -0.707107
-0.707107 -0.000000 0.707107
0.707107 0.000000 -0.707107
-0.707107 0.000000 -0.707107
0.707107 -0.000000 0.707107
0.707107 -0.707107 0.000000
-0.707107 0.707107 -0.000000
0.000000 0.707107 -0.707107
-0.000000 -0.707107 0.707107
-0.000000 -0.707107 -0.707107
0.000000 0.707107 0.707107
0.000000 0.707107 -0.707107
-0.000000 -0.707107 0.707107
-0.707107 -0.000000 -0.707107
0.707107 0.000000 0.707107
-0.000000 0.707107 0.707107
0.000000 -0.707107 -0.707107
-0.707107 -0.000000 -0.707107
0.707107 0.000000 0.707107
0.000000 -0.707107 0.707107
-0.000000 0.707107 -0.707107
0.707107 0.707107 0.000000
-0.707107 -0.707107 -0.000000
0.707107 0.707107 0.000000
-0.707107 -0.707107 -0.000000
0.707107 -0.000000 0.707107
-0.707107 0.000000 -0.707107
0.000000 0.707107 0.707107
-0.000000 -0.707107 -0.707107
-0.707107 -0.707107 0.000000
-0.707107 -0.707107 0.000000
-0.000000 0.707107 -0.707107
0.707107 -0.000000 0.707107
-0.707107 -0.000000 -0.707107
0.707107 0.000000 0.707107
-0.707107 -0.000000 -0.707107
0.707107 0.000000 0.707107
-0.000000 0.707107 0.707107
-0.000000 -0.707107 -0.707107
0.000000 0.707107 -0.707107
-0.000000 -0.707107 0.707107
-0.707107 0.707107 0.000000
0.707107 -0.707107 -0.000000
-0.000000 -0.707107 0.707107
0.000000 0.707107 -0.707107
0.000000 0.707107 0.707107
-0.000000 -0.707107 -0.707107
0.707107 -0.000000 -0.707107
-0.707107 0.000000 0.707107
0.000000 -0.707107 0.707107
-0.000000 0.707107 -0.707107
-0.707107 -0.707107 0.000000
0.707107 0.707107 -0.000000
-0.707107 0.000000 -0.707107
0.707107 -0.000000 0.707107
0.000000 0.707107 0.707107
0.000000 -0.707107 -0.707107
-0.707107 -0.707107 -0.000000
0.707107 0.707107 0.000000
0.707107 -0.707107 -0.000000
-0.707107 0.707107 0.000000
0.707107 -0.000000 0.707107
-0.707107 0.000000 -0.707107
0.707107 0.000000 0.707107
-0.707107 -0.000000 -0.707107
0.707107 0.000000 -0.707107
0.707107 0.000000 0.707107
-0.707107 -0.000000 0.707107
-0.707107 -0.000000 -0.707107
-0.707107 -0.000000 0.707107
0.707107 0.707107 0.000000
0.000000 -0.707107 -0.707107
0.707107 -0.000000 0.707107
-0.707107 -0.000000 -0.707107
0.000000 -0.707107 -0.707107
-0.000000 0.707107 0.707107
0.707107 -0.707107 0.000000
-0.000000 0.707107 -0.707107
-0.707107 -0.000000 0.707107
0.000000 0.707107 -0.707107
-0.000000 -0.707107 0.707107
0.707107 0.000000 0.707107
-0.707107 -0.000000 -0.707107
0.707107 -0.707107 -0.000000
-0.707107 0.707107 0.000000
-0.707107 0.000000 -0.707107
0.707107 -0.000000 0.707107
-0.000000 0.707107 0.707107
0.000000 -0.707107 -0.707107
-0.707107 -0.000000 0.707107
0.707107 0.000000 -0.707107
-0.707107 0.000000 -0.707107
0.707107 -0.707107 0.000000
-0.000000 0.707107 0.707107
-0.000000 -0.707107 0.707107
0.000000 0.707107 -0.707107
-0.707107 -0.707107 0.000000
0.707107 0.707107 -0.000000
-0.000000 -0.707107 -0.707107
-0.707107 -0.707107 0.000000
0.000000 0.707107 0.707107
0.707107 0.707107 -0.000000
0.000000 0.707107 0.707107
-0.000000 -0.707107 -0.707107
0.707107 -0.707107 -0.000000
-0.707107 0.707107 0.000000
-0.707107 -0.000000 0.707107
0.707107 0.000000 -0.707107
0.707107 0.000000 -0.707107
-0.707107 -0.000000 0.707107
0.707107 -0.707107 -0.000000
-0.707107 0.707107 0.000000
-0.707107 0.707107 0.000000
0.707107 -0.707107 -0.000000
-0.000000 -0.707107 0.707107
0.000000 0.707107 -0.707107
0.000000 -0.707107 0.707107
-0.000000 0.707107 -0.707107
-0.000000 -0.707107 -0.707107
0.000000 0.707107 0.707107
0.000000 -0.707107 0.707107
-0.000000 0.707107 -0.707107
0.707107 -0.000000 -0.707107
0.707107 -0.000000 -0.707107
-0.707107 0.000000 0.707107
-0.707107 0.000000 -0.707107
0.707107 -0.000000 0.707107
-0.707107 -0.000000 -0.707107
0.707107 0.000000 0.707107
0.000000 -0.707107 0.707107
0.707107 0.707107 0.000000
-0.707107 -0.000000 -0.707107
-0.000000 -0.707107 -0.707107
0.000000 0.707107 0.707107
0.707107 0.000000 -0.707107
-0.707107 -0.000000 0.707107
-0.707107 -0.707107 -0.000000
0.707107 0.707107 0.000000
-0.707107 -0.000000 -0.707107
0.707107 0.000000 0.707107
-0.707107 -0.000000 0.707107
-0.000000 -0.707107 -0.707107
0.707107 0.707107 0.000000
-0.707107 0.000000 -0.707107
0.707107 -0.000000 0.707107
0.000000 0.707107 -0.707107
0.707107 -0.707107 0.000000
-0.707107 -0.000000 0.707107
0.707107 -0.000000 -0.707107
-0.707107 0.000000 0.707107
0.707107 -0.707107 -0.000000
-0.707107 0.707107 0.000000
0.707107 -0.000000 -0.707107
-0.707107 0.000000 0.707107
0.707107 -0.707107 0.000000
-0.707107 0.707107 -0.000000
-0.707107 0.000000 -0.707107
0.707107 -0.000000 0.707107
0.707107 -0.000000 0.707107
-0.707107 -0.000000 -0.707107
0.707107 0.000000 0.707107
-0.707107 -0.000000 -0.707107
0.707107 0.000000 0.707107
0.707107 -0.707107 0.000000
-0.707107 0.707107 -0.000000
-0.000000 -0.707107 0.707107
-0.000000 -0.000000 -1.414214
0.000000 0.707107 0.707107
-0.707107 -0.000000 0.707107
0.707107 -0.000000 -0.707107
0.707107 -0.000000 -0.707107
-0.707107 0.707107 0.000000
0.707107 0.707107 -0.000000
-0.707107 -0.707107 0.000000
0.707107 -0.707107 -0.000000
-0.707107 0.000000 -0.707107
0.707107 -0.000000 0.707107
-0.707107 0.000000 -0.707107
0.707107 -0.000000 0.707107
-0.707107 -0.707107 0.000000
-0.707107 -0.707107 0.000000
0.707107 0.707107 -0.000000
-0.707107 0.000000 0.707107
0.707107 -0.000000 -0.707107
0.000000 0.707107 0.707107
-0.000000 -0.707107 -0.707107
0.707107 -0.707107 -0.000000
-0.707107 0.707107 0.000000
-0.707107 0.000000 0.707107
0.707107 -0.000000 -0.707107
0.707107 0.000000 0.707107
-0.707107 0.000000 -0.707107
0.707107 0.707107 -0.000000
-0.707107 -0.707107 0.000000
0.000000 -0.707107 0.707107
-0.000000 0.707107 -0.707107
0.707107 0.707107 -0.000000
-0.707107 0.000000 -0.707107
-0.000000 -0.707107 0.707107
0.000000 -0.707107 0.707107
-0.707107 0.707107 0.000000
0.707107 -0.000000 -0.707107
0.707107 -0.707107 -0.000000
-0.707107 0.707107 -0.000000
0.707107 0.000000 -0.707107
-0.707107 -0.000000 0.707107
-0.707107 -0.000000 -0.707107
0.707107 0.000000 0.707107
0.000000 0.707107 0.707107
0.707107 -0.000000 -0.707107
-0.707107 -0.707107 0.000000
0.000000 0.707107 0.707107
-0.000000 -0.707107 -0.707107
-0.707107 0.000000 0.707107
0.707107 -0.000000 -0.707107
-0.000000 -0.707107 0.707107
0.707107 0.000000 -0.707107
-0.707107 0.707107 -0.000000
-0.000000 0.707107 -0.707107
0.000000 -0.707107 0.707107
-0.000000 -0.707107 0.707107
0.000000 0.707107 -0.707107
0.707107 0.707107 0.000000
-0.707107 -0.707107 -0.000000
0.707107 -0.707107 0.000000
-0.707107 0.707107 0.000000
0.707107 0.707107 0.000000
-0.707107 -0.707107 -0.000000
-0.707107 0.000000 -0.707107
0.707107 -0.000000 0.707107
0.707107 -0.707107 0.000000
0.707107 -0.707107 0.000000
0.707107 -0.000000 0.707107
-0.707107 0.000000 -0.707107
0.707107 0.000000 0.707107
-0.707107 -0.000000 -0.707107
-0.707107 -0.000000 -0.707107
0.707107 0.000000 0.707107
0.707107 0.000000 -0.707107
0.000000 -0.707107 -0.707107
-1.414214 0.707107 0.707107
0.707107 -0.000000 0.707107
-0.707107 0.000000 0.707107
0.707107 -0.000000 -0.707107
0.000000 -0.707107 0.707107
-0.000000 0.707107 -0.707107
0.707107 0.000000 -0.707107
-0.707107 -0.000000 0.707107
-0.707107 0.000000 -0.707107
0.707107 -0.000000 0.707107
-0.707107 -0.707107 0.000000
0.707107 0.707107 -0.000000
-0.707107 0.000000 0.707107
-0.707107 0.000000 0.707107
0.707107 -0.000000 -0.707107
-0.707107 -0.000000 -0.707107
0.707107 0.000000 0.707107
0.707107 0.000000 0.707107
0.707107 -0.000000 -0.707107
-0.707107 0.000000 0.707107
0.707107 -0.000000 -0.707107
-0.707107 0.000000 0.707107
-0.707107 0.707107 0.000000
-0.000000 -0.707107 -0.707107
0.707107 -0.000000 0.707107
0.000000 0.707107 -0.707107
-0.000000 -0.707107 0.707107
0.707107 -0.000000 0.707107
-0.707107 -0.707107 0.000000
-0.000000 0.707107 -0.707107
-0.707107 0.707107 0.000000
0.707107 -0.707107 -0.000000
0.000000 0.707107 0.707107
0.000000 0.707107 0.707107
-0.707107 -0.707107 -0.000000
0.707107 -0.000000 -0.707107
-0.707107 -0.707107 -0.000000
0.707107 0.707107 0.000000
-0.707107 -0.000000 0.707107
-0.707107 1.414214 -0.707107
1.414214 -0.707107 0.707107
0.000000 -0.707107 -0.707107
0.707107 0.000000 -0.707107
-0.707107 -0.000000 0.707107
-0.707107 0.707107 -0.000000
0.707107 -0.707107 0.000000
-0.707107 0.000000 0.707107
0.707107 -0.000000 -0.707107
-0.707107 -0.707107 -0.000000
0.707107 0.707107 0.000000
0.000000 -0.707107 0.707107
-0.000000 0.707107 -0.707107
0.707107 0.707107 -0.000000
-0.707107 -0.707107 0.000000
-0.707107 0.000000 0.707107
0.707107 -0.000000 -0.707107
0.707107 0.000000 0.707107
-0.707107 -0.000000 -0.707107
-0.707107 0.000000 -0.707107
0.707107 -0.000000 0.707107
-0.707107 -0.000000 -0.707107
0.707107 0.000000 0.707107
0.000000 0.707107 0.707107
-0.000000 -0.707107 -0.707107
-0.707107 0.000000 0.707107
0.707107 -0.000000 -0.707107
-0.000000 0.707107 0.707107
0.000000 -0.707107 -0.707107
0.707107 -0.707107 0.000000
-0.707107 0.707107 0.000000
0.707107 -0.000000 0.707107
-0.707107 0.000000 -0.707107
-0.707107 0.707107 -0.000000
0.707107 -0.707107 0.000000
-0.707107 -0.707107 0.000000
-0.000000 0.707107 -0.707107
0.707107 0.000000 0.707107
0.000000 0.707107 0.707107
-0.000000 -0.707107 -0.707107
-0.707107 0.707107 0.000000
0.707107 -0.707107 -0.000000
-0.707107 0.707107 0.000000
0.707107 -0.000000 0.707107
-0.000000 -0.707107 -0.707107
-0.707107 0.000000 -0.707107
0.707107 -0.000000 0.707107
0.707107 -0.000000 -0.707107
-0.707107 0.000000 0.707107
0.707107 -0.707107 -0.000000
-0.707107 0.707107 0.000000
0.000000 0.707107 0.707107
-0.000000 -0.707107 -0.707107
-0.000000 -0.707107 -0.707107
0.000000 0.707107 0.707107
-0.000000 -0.707107 -0.707107
0.000000 0.707107 0.707107
0.707107 -0.000000 0.707107
-0.707107 -0.000000 -0.707107
-0.000000 0.707107 0.707107
-0.000000 -0.707107 -0.707107
0.000000 0.707107 0.707107
-0.000000 0.707107 0.707107
0.000000 -0.707107 -0.707107
0.707107 -0.707107 0.000000
-0.707107 0.707107 -0.000000
0.707107 0.707107 -0.000000
-0.707107 -0.707107 0.000000
0.000000 -0.707107 -0.707107
0.000000 -0.707107 -0.707107
-0.000000 0.707107 0.707107
-0.000000 -0.707107 -0.707107
0.000000 0.707107 0.707107
0.000000 -0.707107 -0.707107
0.707107 0.000000 0.707107
-0.707107 -0.000000 -0.707107
0.707107 0.707107 0.000000
-0.707107 -0.707107 -0.000000
-0.000000 0.707107 0.707107
0.000000 -0.707107 -0.707107
0.000000 0.707107 0.707107
-0.000000 -0.707107 -0.707107
0.707107 0.000000 0.707107
-0.707107 -0.000000 -0.707107
-0.707107 -0.000000 -0.707107
0.707107 0.000000 0.707107
0.707107 -0.000000 0.707107
-0.707107 0.000000 -0.707107
0.000000 -0.707107 -0.707107
-0.000000 0.707107 0.707107
0.000000 0.707107 -0.707107
-0.000000 -0.707107 0.707107
0.707107 -0.000000 0.707107
-0.707107 -0.000000 -0.707107
-0.000000 -0.707107 -0.707107
0.707107 0.000000 0.707107
-0.707107 0.707107 0.000000
0.000000 -0.707107 -0.707107
-0.707107 0.000000 0.707107
0.707107 0.707107 -0.000000
0.707107 -0.707107 0.000000
-0.707107 0.707107 -0.000000
0.000000 0.707107 0.707107
-0.000000 -0.707107 -0.707107
-0.707107 0.000000 -0.707107
0.707107 -0.000000 -0.707107
0.000000 0.000000 1.414214
-0.707107 0.707107 0.000000
0.707107 0.000000 0.707107
0.000000 -0.707107 -0.707107
-0.000000 -0.707107 -0.707107
0.000000 -0.707107 0.707107
-0.707107 -0.000000 -0.707107
-0.707107 -0.000000 -0.707107
0.707107 0.707107 0.000000
-0.707107 0.000000 0.707107
0.707107 -0.000000 -0.707107
-0.000000 0.707107 0.707107
0.000000 -0.707107 -0.707107
-0.000000 -0.707107 -0.707107
0.707107 -0.000000 -0.707107
0.000000 0.707107 0.707107
-0.707107 0.000000 0.707107
-0.707107 -0.000000 0.707107
0.707107 -0.707107 0.000000
0.000000 0.707107 -0.707107
-0.000000 -0.707107 -0.707107
0.000000 0.707107 0.707107
0.707107 0.707107 0.000000
-0.707107 -0.707107 -0.000000
-0.707107 -0.707107 0.000000
0.707107 0.707107 -0.000000
-0.000000 -0.707107 -0.707107
0.000000 0.707107 0.707107
-0.707107 -0.000000 0.707107
0.707107 0.000000 -0.707107
-0.707107 -0.707107 -0.000000
0.707107 0.707107 -0.000000
-0.707107 0.000000 -0.707107
0.707107 -0.000000 0.707107
-0.707107 0.000000 -0.707107
0.707107 -0.000000 0.707107
0.707107 -0.707107 -0.000000
-0.707107 0.707107 -0.000000
0.707107 -0.707107 -0.000000
-0.707107 0.707107 0.000000
-0.707107 0.000000 0.707107
0.707107 -0.000000 -0.707107
0.000000 0.707107 -0.707107
-0.000000 -0.707107 0.707107
0.000000 -0.707107 -0.707107
0.707107 0.000000 0.707107
-0.707107 0.707107 -0.000000
-0.707107 0.707107 0.000000
0.707107 -0.707107 -0.000000
0.707107 -0.707107 0.000000
-0.707107 0.707107 -0.000000
-0.707107 0.000000 0.707107
0.707107 -0.000000 -0.707107
-0.000000 0.707107 0.707107
0.000000 -0.707107 -0.707107
0.000000 0.707107 -0.707107
-0.000000 -0.707107 0.707107
-0.707107 0.707107 0.000000
0.707107 -0.707107 -0.000000
-0.000000 -0.707107 0.707107
0.000000 0.707107 -0.707107
-0.000000 -0.707107 -0.707107
0.000000 0.707107 0.707107
-0.707107 -0.000000 0.707107
0.707107 0.000000 -0.707107
0.000000 -0.707107 -0.707107
-0.000000 0.707107 0.707107
0.707107 0.000000 -0.707107
-0.707107 -0.000000 0.707107
-0.000000 0.707107 0.707107
0.000000 -0.707107 -0.707107
-0.707107 -0.000000 -0.707107
0.707107 0.000000 0.707107
-0.707107 0.707107 -0.000000
0.707107 -0.707107 0.000000
0.707107 -0.000000 -0.707107
-0.707107 0.000000 0.707107
-0.707107 0.000000 0.707107
-0.707107 0.000000 -0.707107
0.707107 -0.000000 0.707107
0.000000 -0.707107 -0.707107
-0.000000 0.707107 0.707107
-0.707107 0.000000 -0.707107
0.707107 -0.000000 0.707107
0.707107 -0.000000 -0.707107
-0.707107 0.000000 0.707107
0.707107 -0.707107 0.000000
-0.707107 0.707107 -0.000000
0.707107 -0.707107 -0.000000
-0.707107 0.707107 0.000000
0.707107 -0.000000 -0.707107
-0.707107 0.000000 0.707107
-0.000000 -0.707107 -0.707107
0.000000 0.707107 0.707107
-0.000000 -0.707107 0.707107
0.000000 0.707107 -0.707107
-0.707107 0.000000 -0.707107
0.707107 0.707107 0.000000
0.000000 -0.707107 0.707107
0.707107 0.000000 0.707107
-0.707107 -0.000000 -0.707107
0.000000 0.707107 -0.707107
-0.000000 -0.707107 0.707107
-0.000000 -0.707107 0.707107
-0.707107 -0.000000 -0.707107
0.707107 0.000000 0.707107
-0.707107 -0.707107 0.000000
-0.000000 -0.707107 -0.707107
0.000000 0.707107 0.707107
-0.000000 0.707107 0.707107
0.000000 -0.707107 -0.707107
-0.707107 0.000000 0.707107
0.707107 -0.000000 -0.707107
0.707107 -0.707107 -0.000000
-0.707107 0.000000 -0.707107
0.000000 0.707107 0.707107
-0.000000 -0.707107 0.707107
0.000000 0.707107 -0.707107
0.000000 -0.707107 -0.707107
-0.000000 0.707107 0.707107
-0.707107 0.707107 0.000000
-0.707107 -0.707107 -0.000000
0.707107 0.707107 0.000000
0.707107 0.707107 -0.000000
-0.707107 -0.707107 0.000000
-0.000000 0.707107 0.707107
0.000000 -0.707107 -0.707107
-0.000000 0.707107 0.707107
0.000000 -0.707107 -0.707107
0.000000 0.707107 0.707107
0.000000 -0.707107 -0.707107
-0.707107 -0.000000 -0.707107
0.707107 0.000000 0.707107
0.707107 0.000000 0.707107
0.707107 0.707107 0.000000
-0.707107 -0.707107 -0.000000
0.707107 -0.000000 0.707107
-0.707107 0.000000 -0.707107
0.000000 -0.707107 0.707107
-0.000000 0.707107 -0.707107
-0.000000 -0.707107 -0.707107
0.000000 0.707107 0.707107
-0.707107 -0.000000 -0.707107
0.707107 0.000000 0.707107
-0.707107 -0.000000 0.707107
0.707107 0.000000 -0.707107
0.707107 0.707107 -0.000000
-0.707107 -0.707107 0.000000
0.000000 0.707107 -0.707107
-0.707107 0.000000 0.707107
0.707107 -0.707107 -0.000000
-0.707107 0.707107 0.000000
0.707107 -0.707107 -0.000000
0.707107 -0.000000 -0.707107
-0.000000 -0.707107 -0.707107
0.000000 0.707107 0.707107
-0.000000 -0.707107 0.707107
0.000000 0.707107 -0.707107
-0.707107 0.000000 0.707107
0.707107 -0.000000 -0.707107
0.707107 -0.000000 -0.707107
-0.707107 0.000000 -0.707107
-0.000000 -0.000000 1.414214
0.707107 -0.000000 0.707107
-0.707107 0.000000 -0.707107
-0.707107 -0.000000 -0.707107
0.707107 0.000000 0.707107
-0.000000 -0.707107 -0.707107
0.000000 0.707107 0.707107
0.000000 0.707107 0.707107
-0.000000 -0.707107 -0.707107
-0.707107 0.707107 0.000000
0.707107 -0.707107 -0.000000
0.000000 -0.707107 0.707107
-0.000000 0.707107 -0.707107
0.000000 0.707107 -0.707107
-0.000000 -0.707107 0.707107
0.707107 0.000000 -0.707107
0.000000 0.707107 0.707107
-0.000000 -0.707107 -0.707107
0.000000 -0.707107 0.707107
-0.000000 0.707107 -0.707107
0.000000 0.707107 0.707107
-0.000000 -0.707107 -0.707107
-0.000000 1.414214 -0.000000
-0.000000 -0.707107 0.707107
0.000000 -0.707107 -0.707107
-0.000000 -0.707107 -0.707107
0.000000 0.707107 0.707107
-0.707107 -0.707107 0.000000
0.707107 0.707107 -0.000000
0.000000 0.707107 0.707107
-0.000000 -0.707107 -0.707107
-0.707107 -0.707107 0.000000
0.000000 0.707107 0.707107
-0.707107 0.707107 0.000000
0.707107 -0.707107 -0.000000
-0.707107 -0.000000 -0.707107
0.707107 0.000000 0.707107
-0.707107 -0.707107 0.000000
0.707107 0.707107 -0.000000
-0.707107 0.000000 -0.707107
0.707107 -0.000000 0.707107
-0.000000 0.707107 -0.707107
0.000000 -0.707107 0.707107
0.000000 0.707107 0.707107
-0.000000 -0.707107 -0.707107
-0.707107 -0.000000 -0.707107
0.707107 0.000000 0.707107
-0.707107 0.000000 -0.707107
0.707107 -0.000000 0.707107
0.000000 -0.707107 -0.707107
0.000000 0.707107 0.707107
0.707107 -0.000000 -0.707107
-0.707107 0.000000 0.707107
-0.707107 -0.000000 -0.707107
0.707107 0.000000 0.707107
-0.707107 0.707107 -0.000000
0.707107 -0.707107 0.000000
-0.707107 0.000000 -0.707107
0.707107 -0.000000 0.707107
0.707107 -0.707107 0.000000
-0.707107 0.707107 -0.000000
0.707107 -0.000000 -0.707107
-0.707107 0.000000 0.707107
-0.000000 -0.707107 -0.707107
0.000000 0.707107 0.707107
-0.000000 -0.707107 0.707107
0.000000 0.707107 -0.707107
-0.707107 0.707107 -0.000000
0.707107 -0.707107 0.000000
0.707107 -0.000000 -0.707107
0.000000 0.707107 0.707107
-0.000000 -0.707107 -0.707107