# vtk DataFile Version 3.0
Configuration exported from OpenDiS
ASCII
DATASET UNSTRUCTURED_GRID
POINTS 30098 FLOAT
-29412.000000 -29412.000000 -29412.000000
29412.000000 -29412.000000 -29412.000000
-29412.000000 29412.000000 -29412.000000
-29412.000000 -29412.000000 29412.000000
29412.000000 29412.000000 -29412.000000
29412.000000 -29412.000000 29412.000000
-29412.000000 29412.000000 29412.000000
29412.000000 29412.000000 29412.000000
-4885.291500 -1338.781029 15033.055983
-4936.985190 -593.621120 14339.589765
-4885.291500 -1338.781029 15033.055983
-4794.920924 -2090.766626 15694.671005
346.170467 20097.205734 20959.376125
346.170467 20965.181546 20091.420787
346.170467 20097.205734 20959.376125
869.077937 20243.362001 21336.131017
346.170467 20097.205734 20959.376125
260.713788 19343.230282 21798.811945
20293.657720 9382.491965 25079.744017
20293.657720 8761.558201 24468.858963
20293.657720 9382.491965 25079.744017
20293.657720 10360.331814 26053.748965
-27535.052984 11947.691428 -11769.237555
-28237.087878 12633.692540 -10381.201549
-27535.052984 11947.691428 -11769.237555
-27076.561525 11428.262889 -12747.157553
28827.294587 -24301.027375 -1463.443817
28870.082328 -25488.445397 -2608.074098
28827.294587 -24301.027375 -1463.443817
28837.867189 -23307.986823 -459.830663
-28819.511044 -24999.027859 20718.668394
-29401.861530 -26295.070274 21432.360323
-28819.511044 -24999.027859 20718.668394
-28894.612136 -24068.201461 19712.740904
-15359.561507 15858.820224 15975.066477
-16079.645949 16578.904666 15975.066477
-15359.561507 15858.820224 15975.066477
-14566.783459 15066.042176 15975.066477
10702.880210 -10975.433670 -2820.617746
10754.319890 -10923.993990 -2820.617746
10702.880210 -10975.433670 -2820.617746
9627.676755 -11918.277924 -2688.258545
28644.772110 -4645.759123 12059.289900
28762.977314 -5411.074916 12706.400490
28644.772110 -4645.759123 12059.289900
28567.831091 -3693.954131 11184.425928
3814.284612 25638.080578 -1013.446659
4677.836387 25638.080578 -1876.998434
3814.284612 25638.080578 -1013.446659
2959.598264 25638.080578 -157.904482
7079.657955 17441.141893 14790.684898
7841.634833 17441.141893 15552.661776
7079.657955 17441.141893 14790.684898
6360.481202 17441.141893 14071.508144
-25326.594800 8895.540856 6104.833733
-26043.562364 8895.540856 5387.866169
-25326.594800 8895.540856 6104.833733
-25330.405486 10060.314235 4943.871040
-22310.293541 7740.048816 -718.726548
-21544.486313 7740.048816 47.092389
-22310.293541 7740.048816 -718.726548
-22841.759096 7740.048816 -1250.202975
-587.487735 -3409.086539 -4396.712504
-1121.721277 -3409.086539 -4911.975368
-587.487735 -3409.086539 -4396.712504
249.474637 -3409.086539 -3558.045184
-18355.913795 -10403.057280 -21256.045470
-18819.822582 -10253.229467 -20941.964495
-18355.913795 -10403.057280 -21256.045470
-17575.894430 -10636.882039 -21802.240076
-17506.796593 -11476.528402 24009.491094
-17126.388498 -11476.528260 24376.540234
-17506.796593 -11476.528402 24009.491094
-17874.837121 -11476.528540 23654.375204
1354.966680 21345.936954 22304.641747
1003.911671 22047.351188 22655.000971
1354.966680 21345.936954 22304.641747
1669.279072 20553.338484 21826.355668
27817.170708 2672.702223 -6286.772379
28510.420936 3734.586648 -5918.138168
27817.170708 2672.702223 -6286.772379
26971.044032 1628.280553 -6485.067403
18040.835765 14762.767986 -16935.826937
19134.096855 15580.708641 -17211.147372
18040.835765 14762.767986 -16935.826937
16901.473643 14062.301081 -16496.931720
-8943.982691 14324.710110 -17991.217112
-8235.277382 13616.004801 -17991.217112
-8943.982691 14324.710110 -17991.217112
-10208.056684 15588.784103 -17991.217112
-18410.786928 27545.989491 -27937.116659
-18223.060686 28427.640297 -29006.493706
-18410.786928 27545.989491 -27937.116659
-18617.836633 26839.922531 -27023.999994
20541.768909 -19801.949182 -5104.724698
21106.826829 -20433.462040 -5171.179636
20541.768909 -19801.949182 -5104.724698
20048.339633 -19342.082708 -5138.287501
23374.136700 -10006.553639 23292.550279
23830.211360 -10097.618515 22927.540495
23374.136700 -10006.553639 23292.550279
22548.565231 -10160.610230 24272.178338
-26833.639669 26228.923825 12901.901954
-27572.716857 26242.034727 13627.868240
-26833.639669 26228.923825 12901.901954
-26102.985613 26188.664068 12211.507654
-3120.062892 26424.948989 22908.624210
-3898.820707 27203.706804 22908.624210
-3120.062892 26424.948989 22908.624210
-2341.305078 25646.191175 22908.624210
-22610.071728 11460.553693 27623.843230
-22610.071728 12182.545102 26901.851822
-22610.071728 11460.553693 27623.843230
-22610.071728 10750.722007 28333.674916
-13247.011455 -1194.523980 16995.791977
-12023.882986 -1183.359843 18230.084584
-13247.011455 -1194.523980 16995.791977
-14072.333126 -1458.484305 15906.509982
21830.983259 -12127.524995 6023.935897
22262.497007 -11476.527551 4941.425031
21830.983259 -12127.524995 6023.935897
21680.714279 -12744.118255 6790.797809
-24863.388137 15918.659431 27485.417219
-24113.195495 15933.186153 26720.697855
-24863.388137 15918.659431 27485.417219
-25583.544266 15887.308680 28236.924099
-1999.113232 -23710.365786 13854.809997
-1143.005780 -24546.677685 13874.605550
-1999.113232 -23710.365786 13854.809997
-3366.712311 -22470.219479 13727.357225
4718.872750 -6713.059372 12121.466037
4718.872750 -5975.831711 12858.694192
4718.872750 -6713.059372 12121.466037
4718.872750 -7875.424452 10994.354689
4691.804033 -15889.558242 3481.595789
5269.652946 -16912.715117 3926.903752
4691.804033 -15889.558242 3481.595789
4483.388932 -15516.644493 3317.097141
-16788.373286 24262.056682 -15898.261175
-17803.367698 24262.056682 -16912.990533
-16788.373286 24262.056682 -15898.261175
-15904.225609 24262.056682 -15014.113457
6913.188298 -19216.745951 -3362.413619
5824.291740 -18471.665106 -3018.597907
6913.188298 -19216.745951 -3362.413619
7922.693571 -18320.387242 -3475.560183
6913.188298 -19216.745951 -3362.413619
6029.972576 -20439.559535 -3022.815758
-6625.861251 19816.406632 -9615.198193
-7358.666175 19100.253613 -9615.198193
-6625.861251 19816.406632 -9615.198193
-5688.799192 20752.481988 -9615.198193
162.746813 -14129.225102 -16418.603193
-744.449770 -12813.551383 -16827.080345
162.746813 -14129.225102 -16418.603193
1095.175985 -15228.564553 -16251.692911
19219.318772 -1663.726201 11670.887819
20555.531689 -655.336549 11998.711084
19219.318772 -1663.726201 11670.887819
18814.775411 -2194.475307 11797.093564
-27744.182535 25648.063722 -22846.621940
-28828.159126 26650.454659 -22846.621940
-27744.182535 25648.063722 -22846.621940
-26621.527693 24538.658488 -22846.621940
14652.332950 21531.948388 16073.827850
15067.068862 21117.212476 16073.827850
14652.332950 21531.948388 16073.827850
13874.409952 22309.871386 16073.827849
19411.738578 -17701.373968 -24260.351812
20381.997648 -17723.912843 -25253.149757
19411.738578 -17701.373968 -24260.351812
19064.042807 -17508.313700 -23719.595772
-15062.930520 -11850.186101 21939.424415
-15057.314603 -11910.111434 22004.932485
-15062.930520 -11850.186101 21939.424415
-15644.156756 -12646.285410 21724.551353
-15062.930520 -11850.186101 21939.424415
-15826.265180 -11850.186101 22702.759075
-10163.977038 18576.498617 18607.712559
-10586.328346 19417.906742 19026.769375
-10163.977038 18576.498617 18607.712559
-9739.532847 17702.365952 18158.024084
-27273.889357 -5795.452203 -1358.805471
-27273.889357 -4976.114369 -539.467637
-27273.889357 -5795.452203 -1358.805471
-27273.889357 -6523.060089 -2086.413358
-20767.584993 26023.451301 22349.241367
-20307.389934 25522.050404 23310.837323
-20767.584993 26023.451301 22349.241367
-21251.597318 26577.370362 21311.309981
-28812.605344 16992.291493 7720.797119
-29358.339090 15690.176989 6964.416361
-28812.605344 16992.291493 7720.797119
-28120.014804 18247.248998 8283.164086
2679.259369 -19447.642836 -5186.425345
3129.430230 -20491.340905 -5779.952552
2679.259369 -19447.642836 -5186.425345
1948.983597 -17834.354726 -4303.413006
-23195.628156 -9550.611462 14849.653883
-22516.585959 -10514.233422 15134.233645
-23195.628156 -9550.611462 14849.653883
-22657.263588 -8830.621722 14668.028711
-18676.092516 24676.810672 -17325.142024
-18834.872838 24333.768836 -16823.319866
-18676.092516 24676.810672 -17325.142024
-18585.459915 24872.620664 -17611.584617
-18974.921063 -4098.959754 1950.121885
-19204.701323 -3332.723272 954.105143
-18974.921063 -4098.959754 1950.121885
-18893.170672 -4438.495158 2371.407680
12506.983231 27499.119737 12345.321698
12547.127352 26712.018810 13172.566747
12506.983231 27499.119737 12345.321698
12577.131058 27741.302781 12173.286482
8030.917026 19554.398128 -29233.917907
8115.484749 19085.681145 -28680.633200
8030.917026 19554.398128 -29233.917907
7965.370441 19666.933638 -29412.000001
7965.370441 19666.933638 29411.999987
7612.446331 20272.861392 28453.148135
5755.472337 13179.440723 -7303.506682
5760.288447 13570.231142 -7689.480991
5755.472337 13179.440723 -7303.506682
5762.350357 12254.280252 -6371.468191
-2910.965599 -3409.086539 -6716.314026
-1772.566656 -3409.086539 -5577.915083
-2910.965599 -3409.086539 -6716.314026
-3740.286110 -3409.086539 -7544.395973
5033.691703 -27785.156038 12973.470257
4931.897408 -27472.117461 12762.225974
5033.691703 -27785.156038 12973.470257
5812.702273 -28564.166608 12973.470257
5033.691703 -27785.156038 12973.470257
5117.833661 -27272.786388 13569.981864
8948.898684 4978.563117 22404.094740
8385.473231 4619.407526 22199.838965
8948.898684 4978.563117 22404.094740
9593.236048 5329.158378 22110.352637
8948.898684 4978.563117 22404.094740
8948.898684 4103.232019 23279.425736
-13030.092191 -17762.588847 -11556.691978
-13753.401811 -17762.588847 -10833.094580
-13030.092191 -17762.588847 -11556.691978
-12319.619000 -17762.588847 -12267.466957
-10741.523310 -16712.869427 -11739.090687
-11627.503022 -17494.721395 -11843.218431
-10741.523310 -16712.869427 -11739.090687
-10304.872676 -15983.603554 -12031.705926
-14558.065481 19238.127052 -28018.692707
-14732.069757 18036.100812 -29046.714672
[...]
CELL_DATA 15046
VECTORS Burgers FLOAT
0.000000 0.000000 0.000000
0.707107 -0.707107 -0.000000
-0.707107 0.707107 0.000000
0.000000 0.707107 0.707107
-0.707107 0.000000 -0.707107
0.707107 -0.707107 0.000000
0.000000 -0.707107 0.707107
0.000000 0.707107 -0.707107
0.707107 0.000000 -0.707107
-0.707107 -0.000000 0.707107
-0.707107 0.707107 -0.000000
0.707107 -0.707107 0.000000
0.707107 0.000000 0.707107
-0.707107 0.000000 -0.707107
-0.707107 -0.707107 0.000000
0.707107 0.707107 -0.000000
-0.707107 -0.707107 0.000000
0.707107 0.707107 -0.000000
-0.707107 0.707107 -0.000000
0.707107 -0.707107 0.000000
-0.707107 0.000000 -0.707107
0.707107 0.000000 0.707107
-0.707107 0.000000 0.707107
0.707107 -0.000000 -0.707107
0.707107 0.000000 -0.707107
-0.707107 -0.000000 0.707107
-0.707107 -0.000000 0.707107
0.707107 0.000000 -0.707107
0.707107 -0.000000 -0.707107
-0.707107 0.000000 0.707107
-0.707107 0.707107 0.000000
0.707107 -0.707107 -0.000000
-0.707107 0.000000 0.707107
0.707107 -0.000000 -0.707107
0.000000 -0.707107 -0.707107
-0.000000 0.707107 0.707107
0.000000 -0.707107 -0.707107
-0.000000 0.707107 0.707107
0.707107 0.000000 -0.707107
-0.707107 -0.000000 0.707107
0.707107 0.707107 0.000000
-0.707107 -0.707107 -0.000000
0.707107 -0.000000 -0.707107
-0.707107 0.000000 0.707107
-0.000000 0.707107 0.707107
0.000000 -0.707107 -0.707107
-0.707107 -0.000000 0.707107
0.707107 0.000000 -0.707107
0.707107 -0.707107 0.000000
-0.707107 0.707107 -0.000000
-0.707107 -0.707107 0.000000
0.707107 0.707107 -0.000000
-0.000000 0.707107 0.707107
0.000000 -0.707107 -0.707107
0.000000 0.707107 0.707107
-0.000000 -0.707107 -0.707107
-0.707107 0.000000 0.707107
0.707107 -0.000000 -0.707107
-0.707107 0.707107 0.000000
0.707107 -0.707107 -0.000000
0.000000 0.707107 0.707107
-0.000000 -0.707107 -0.707107
-0.000000 0.707107 -0.707107
-0.000000 -0.707107 0.707107
-0.707107 0.707107 -0.000000
0.707107 -0.707107 -0.000000
0.707107 -0.000000 -0.707107
-0.707107 -0.000000 0.707107
-0.707107 0.000000 0.707107
0.000000 -0.707107 -0.707107
0.707107 0.707107 0.000000
-0.707107 0.707107 -0.000000
0.707107 -0.707107 -0.000000
-0.000000 -0.707107 0.707107
0.000000 0.707107 -0.707107
0.000000 -0.707107 0.707107
-0.000000 0.707107 -0.707107
-0.707107 -0.707107 -0.000000
0.707107 0.707107 0.000000
0.707107 0.707107 0.000000
-0.707107 -0.707107 -0.000000
-0.707107 -0.707107 0.000000
0.707107 0.707107 -0.000000
-0.000000 0.707107 -0.707107
-0.707107 -0.707107 0.000000
0.707107 -0.000000 0.707107
0.707107 -0.707107 0.000000
-0.707107 0.707107 -0.000000
0.000000 0.707107 -0.707107
-0.000000 -0.707107 0.707107
-0.707107 0.000000 -0.707107
0.707107 -0.000000 0.707107
0.000000 -0.707107 -0.707107
-0.000000 0.707107 0.707107
0.000000 0.707107 0.707107
-0.000000 -0.707107 -0.707107
-0.000000 0.707107 -0.707107
0.000000 -0.707107 0.707107
0.707107 -0.707107 0.000000
-0.707107 0.707107 -0.000000
-0.000000 -0.707107 0.707107
0.000000 0.707107 -0.707107
0.707107 0.707107 -0.000000
-0.707107 -0.707107 0.000000
0.707107 -0.000000 0.707107
-0.707107 0.000000 -0.707107
-0.707107 0.000000 -0.707107
-0.707107 -0.707107 -0.000000
0.707107 0.707107 0.000000
-0.707107 0.000000 0.707107
0.707107 0.000000 -0.707107
0.707107 -0.707107 0.000000
0.000000 0.707107 0.707107
-0.707107 -0.000000 -0.707107
0.707107 0.707107 0.000000
-0.707107 -0.000000 0.707107
-0.000000 -0.707107 -0.707107
0.707107 -0.000000 0.707107
-0.707107 0.000000 -0.707107
0.707107 0.000000 0.707107
-0.707107 -0.000000 -0.707107
-0.000000 -0.707107 -0.707107
0.000000 0.707107 0.707107
0.707107 0.000000 -0.707107
0.000000 0.707107 0.707107
-0.707107 -0.707107 -0.000000
-0.707107 -0.000000 0.707107
0.707107 0.000000 -0.707107
0.707107 -0.000000 0.707107
-0.707107 0.707107 -0.000000
0.000000 -0.707107 -0.707107
-0.707107 0.000000 0.707107
0.707107 -0.000000 -0.707107
0.707107 0.000000 -0.707107
-0.707107 -0.000000 0.707107
0.000000 0.707107 0.707107
0.000000 -0.707107 -0.707107
-0.707107 0.000000 -0.707107
0.707107 -0.000000 0.707107
0.707107 -0.707107 0.000000
-0.707107 0.707107 0.000000
0.707107 0.000000 -0.707107
-0.707107 -0.000000 0.707107
0.000000 0.707107 -0.707107
0.707107 -0.707107 0.000000
-0.707107 0.000000 0.707107
-0.707107 0.707107 -0.000000
0.707107 -0.707107 -0.000000
0.000000 -0.707107 -0.707107
-0.000000 0.707107 0.707107
0.707107 -0.000000 0.707107
-0.707107 -0.000000 -0.707107
0.000000 -0.707107 -0.707107
-0.000000 0.707107 0.707107
-0.707107 -0.000000 0.707107
0.707107 0.000000 -0.707107
0.707107 -0.707107 -0.000000
0.000000 0.707107 -0.707107
-0.707107 -0.000000 0.707107
0.707107 0.707107 -0.000000
-0.707107 -0.707107 0.000000
-0.707107 -0.000000 0.707107
0.707107 0.000000 -0.707107
0.000000 -0.707107 -0.707107
-0.707107 0.707107 0.000000
0.707107 0.000000 0.707107
0.707107 0.000000 -0.707107
-0.707107 0.707107 -0.000000
0.707107 -0.707107 0.000000
-0.707107 -0.000000 -0.707107
0.707107 -0.000000 0.707107
0.000000 0.707107 0.707107
-0.000000 -0.707107 -0.707107
0.707107 -0.707107 0.000000
-0.707107 0.707107 -0.000000
0.000000 0.707107 -0.707107
-0.000000 -0.707107 0.707107
0.707107 0.707107 0.000000
-0.707107 -0.707107 0.000000
-0.000000 -0.707107 -0.707107
0.000000 0.707107 0.707107
-0.707107 -0.000000 0.707107
0.707107 0.000000 -0.707107
0.707107 -0.707107 -0.000000
-0.707107 0.707107 0.000000
-0.707107 -0.707107 -0.000000
0.707107 0.707107 -0.000000
-0.707107 0.707107 0.000000
0.707107 -0.707107 0.000000
0.000000 0.707107 -0.707107
-0.000000 -0.707107 0.707107
-0.707107 0.000000 0.707107
0.707107 -0.000000 -0.707107
0.707107 -0.000000 -0.707107
0.707107 0.000000 0.707107
-0.707107 -0.000000 -0.707107
-0.000000 -0.707107 -0.707107
-0.000000 0.707107 0.707107
0.707107 -0.707107 0.000000
-0.707107 0.707107 -0.000000
0.707107 0.000000 0.707107
-0.707107 -0.000000 -0.707107
-0.707107 -0.707107 0.000000
0.707107 0.707107 0.000000
0.000000 -0.707107 -0.707107
0.000000 0.707107 0.707107
0.707107 -0.707107 -0.000000
-0.707107 0.707107 0.000000
-0.707107 -0.707107 -0.000000
0.707107 0.707107 0.000000
-0.707107 -0.707107 -0.000000
0.707107 0.707107 0.000000
-0.707107 -0.000000 -0.707107
0.707107 0.000000 0.707107
-0.707107 0.000000 0.707107
0.707107 -0.000000 -0.707107
0.000000 -0.707107 0.707107
-0.000000 0.707107 -0.707107
0.707107 -0.000000 0.707107
-0.707107 -0.000000 -0.707107
0.000000 0.707107 -0.707107
-0.000000 -0.707107 0.707107
0.707107 0.000000 -0.707107
-0.707107 -0.000000 0.707107
-0.707107 -0.707107 -0.000000
0.707107 0.707107 -0.000000
0.707107 0.000000 0.707107
-0.707107 -0.000000 -0.707107
0.707107 0.707107 0.000000
-0.707107 -0.707107 0.000000
0.707107 0.707107 -0.000000
-0.707107 -0.707107 -0.000000
0.000000 0.707107 0.707107
0.707107 0.000000 -0.707107
-0.707107 -0.707107 -0.000000
0.000000 0.707107 0.707107
-0.000000 -0.707107 -0.707107
1.414214 0.000000 0.000000
-1.414214 -0.000000 -0.000000
-0.707107 -0.000000 0.707107
0.707107 -0.000000 -0.707107
-0.000000 0.707107 0.707107
0.000000 -0.707107 -0.707107
0.000000 -0.707107 -0.707107
0.707107 -0.707107 -0.000000
-0.707107 0.707107 -0.000000
0.707107 -0.000000 0.707107
-0.707107 -0.000000 -0.707107
-0.707107 0.000000 -0.707107
0.707107 -0.000000 0.707107
-0.707107 -0.000000 -0.707107
0.707107 0.000000 0.707107
0.000000 -0.707107 -0.707107
-0.000000 0.707107 0.707107
0.000000 -0.707107 -0.707107
-0.000000 0.707107 0.707107
0.707107 0.000000 0.707107
-0.707107 -0.000000 -0.707107
-0.707107 -0.000000 -0.707107
0.707107 -0.707107 0.000000
-0.707107 0.707107 -0.000000
0.000000 -0.707107 0.707107
-0.707107 0.707107 0.000000
0.707107 0.000000 -0.707107
-0.707107 0.000000 -0.707107
-0.707107 0.707107 -0.000000
0.707107 -0.707107 0.000000
-0.707107 0.707107 0.000000
0.000000 -0.707107 -0.707107
0.000000 -0.707107 -0.707107
0.707107 -0.000000 0.707107
-0.707107 0.707107 0.000000
0.707107 -0.707107 -0.000000
-0.000000 -0.707107 0.707107
0.707107 0.000000 -0.707107
-0.707107 0.707107 0.000000
-0.707107 -0.707107 -0.000000
0.707107 0.707107 0.000000
0.000000 -0.707107 -0.707107
-0.707107 0.707107 -0.000000
-0.707107 -0.707107 -0.000000
0.707107 0.707107 -0.000000
0.707107 0.000000 0.707107
-0.707107 -0.000000 -0.707107
-0.000000 0.707107 0.707107
0.000000 -0.707107 -0.707107
0.000000 -0.707107 -0.707107
-0.000000 0.707107 0.707107
0.707107 -0.000000 0.707107
-0.707107 0.000000 -0.707107
-0.000000 -0.707107 0.707107
0.000000 0.707107 -0.707107
-0.000000 0.707107 -0.707107
0.000000 -0.707107 0.707107
0.707107 -0.707107 0.000000
-0.707107 0.707107 0.000000
0.707107 0.707107 0.000000
-0.707107 -0.707107 -0.000000
-0.707107 0.000000 0.707107
0.707107 -0.000000 -0.707107
-0.707107 -0.000000 -0.707107
0.707107 -0.000000 0.707107
0.707107 0.000000 -0.707107
-0.707107 -0.000000 0.707107
-0.707107 -0.707107 -0.000000
0.707107 0.000000 0.707107
0.000000 0.707107 -0.707107
0.707107 -0.000000 0.707107
-0.707107 -0.000000 -0.707107
0.707107 0.000000 0.707107
-0.707107 0.000000 -0.707107
0.000000 0.707107 0.707107
-0.000000 -0.707107 -0.707107
0.707107 0.000000 -0.707107
0.000000 -0.707107 0.707107
-0.707107 0.707107 0.000000
-0.000000 -0.707107 -0.707107
-0.000000 0.707107 0.707107
0.000000 -0.707107 -0.707107
-0.000000 0.707107 0.707107
-0.707107 0.000000 -0.707107
0.707107 0.000000 0.707107
-0.707107 -0.707107 0.000000
0.707107 0.707107 -0.000000
-0.000000 -0.707107 -0.707107
0.000000 0.707107 0.707107
0.707107 0.000000 -0.707107
-0.707107 -0.000000 0.707107
0.000000 -0.707107 -0.707107
-0.000000 0.707107 0.707107
0.000000 -0.707107 -0.707107
-0.000000 0.707107 0.707107
-0.707107 0.000000 -0.707107
0.707107 -0.000000 0.707107
-0.707107 -0.000000 0.707107
-0.707107 -0.707107 0.000000
0.707107 0.707107 -0.000000
0.707107 0.000000 -0.707107
0.707107 -0.707107 -0.000000
-0.707107 0.707107 0.000000
0.707107 -0.000000 -0.707107
-0.707107 0.000000 0.707107
0.000000 0.707107 0.707107
-0.000000 -0.707107 -0.707107
0.000000 0.707107 0.707107
-0.000000 -0.707107 -0.707107
-0.000000 -0.707107 -0.707107
-0.707107 -0.707107 -0.000000
0.707107 0.707107 -0.000000
0.000000 -0.707107 0.707107
-0.000000 0.707107 -0.707107
-0.707107 0.707107 -0.000000
0.707107 -0.707107 0.000000
0.707107 -0.707107 -0.000000
0.707107 -0.000000 0.707107
-0.707107 0.000000 -0.707107
0.707107 0.000000 0.707107
0.707107 0.000000 0.707107
-0.707107 -0.000000 -0.707107
-0.000000 0.707107 0.707107
0.000000 -0.707107 -0.707107
0.000000 0.707107 0.707107
0.000000 -0.707107 -0.707107
0.707107 0.000000 -0.707107
-0.707107 -0.000000 0.707107
0.707107 0.707107 0.000000
-0.707107 -0.707107 -0.000000
-0.707107 -0.000000 -0.707107
0.707107 0.000000 0.707107
0.707107 0.707107 -0.000000
0.707107 -0.707107 -0.000000
-0.707107 -0.000000 -0.707107
0.707107 -0.707107 0.000000
-0.707107 0.707107 -0.000000
0.707107 0.000000 0.707107
-0.707107 0.000000 -0.707107
0.707107 -0.707107 0.000000
-0.707107 0.707107 0.000000
-0.707107 0.707107 0.000000
0.707107 -0.707107 -0.000000
0.707107 -0.707107 -0.000000
-0.707107 0.707107 0.000000
-0.707107 -0.000000 0.707107
0.707107 0.000000 -0.707107
0.000000 0.707107 -0.707107
-0.000000 -0.707107 0.707107
0.707107 -0.000000 0.707107
-0.707107 0.000000 -0.707107
-0.707107 0.000000 -0.707107
-0.000000 -0.707107 -0.707107
0.000000 0.707107 0.707107
0.707107 -0.707107 -0.000000
-0.707107 0.707107 0.000000
0.000000 0.707107 0.707107
-0.000000 -0.707107 -0.707107
0.707107 -0.707107 -0.000000
-0.707107 0.707107 0.000000
-0.000000 -0.707107 0.707107
0.000000 0.707107 -0.707107
-0.000000 -0.707107 -0.707107
-0.000000 0.707107 0.707107
-0.707107 -0.707107 -0.000000
0.707107 0.707107 0.000000
-0.000000 -0.707107 0.707107
-0.000000 0.707107 -0.707107
-0.707107 -0.707107 0.000000
0.707107 0.707107 -0.000000
-0.707107 0.707107 -0.000000
0.707107 -0.707107 0.000000
0.000000 -0.707107 -0.707107
-0.000000 0.707107 -0.707107
0.000000 -0.707107 0.707107
-0.000000 0.707107 0.707107
-0.707107 0.707107 0.000000
0.707107 0.000000 -0.707107
0.000000 -0.707107 0.707107
0.707107 -0.707107 0.000000
-0.707107 0.707107 -0.000000
0.707107 -0.000000 0.707107
-0.707107 0.000000 -0.707107
0.000000 -0.707107 0.707107
-0.000000 0.707107 -0.707107
0.707107 -0.707107 -0.000000
-0.707107 0.707107 0.000000
0.707107 -0.000000 0.707107
-0.707107 0.000000 -0.707107
0.707107 -0.000000 0.707107
-0.707107 0.000000 -0.707107
-0.707107 -0.000000 0.707107
0.707107 0.000000 -0.707107
0.707107 0.000000 0.707107
-0.707107 -0.000000 -0.707107
-0.707107 0.000000 0.707107
0.707107 -0.000000 -0.707107
-0.707107 -0.707107 0.000000
0.707107 0.707107 -0.000000
0.707107 -0.707107 -0.000000
-0.707107 0.707107 0.000000
-0.707107 0.000000 0.707107
0.707107 -0.000000 -0.707107
0.000000 0.707107 -0.707107
-0.000000 -0.707107 0.707107
-0.707107 -0.000000 -0.707107
0.707107 -0.000000 0.707107
0.707107 -0.000000 0.707107
0.000000 -0.707107 -0.707107
-0.000000 0.707107 0.707107
0.707107 -0.707107 0.000000
-0.707107 0.707107 -0.000000
0.707107 0.707107 -0.000000
-0.707107 -0.707107 0.000000
0.707107 -0.000000 0.707107
-0.707107 0.000000 -0.707107
0.000000 0.707107 -0.707107
-0.000000 -0.707107 0.707107
0.000000 0.707107 -0.707107
0.000000 -0.707107 0.707107
0.707107 0.000000 -0.707107
-0.707107 -0.000000 0.707107
0.000000 -0.707107 0.707107
0.000000 0.707107 -0.707107
0.000000 0.707107 0.707107
-0.000000 -0.707107 -0.707107
-0.000000 -0.707107 -0.707107
-0.707107 0.707107 0.000000
-0.707107 0.707107 0.000000
0.000000 -0.707107 0.707107
0.707107 0.000000 -0.707107
-0.000000 0.707107 0.707107
0.000000 -0.707107 -0.707107
-0.707107 0.000000 -0.707107
0.707107 0.707107 0.000000
0.707107 0.707107 0.000000
0.000000 -0.707107 0.707107
0.707107 0.000000 0.707107
-0.707107 -0.000000 -0.707107
-0.000000 0.707107 0.707107
-0.000000 -0.707107 -0.707107
0.000000 0.707107 -0.707107
-0.000000 -0.707107 0.707107
0.000000 0.707107 0.707107
-0.000000 -0.707107 -0.707107
0.000000 0.707107 0.707107
-0.000000 -0.707107 -0.707107
-0.707107 0.000000 -0.707107
0.707107 -0.000000 0.707107
-0.707107 -0.000000 0.707107
0.707107 0.707107 -0.000000
-0.000000 -0.707107 -0.707107
-0.000000 0.707107 0.707107
-0.000000 -0.707107 -0.707107
0.000000 0.707107 0.707107
0.707107 -0.707107 0.000000
-0.707107 0.000000 -0.707107
0.000000 -0.707107 -0.707107
-0.000000 0.707107 0.707107
-0.707107 -0.707107 0.000000
0.707107 0.707107 -0.000000
-0.707107 -0.000000 0.707107
0.707107 0.000000 -0.707107
0.000000 0.707107 -0.707107
-0.000000 -0.707107 0.707107
-0.707107 -0.707107 0.000000
0.707107 0.707107 -0.000000
0.000000 0.707107 -0.707107
-0.000000 -0.707107 0.707107
0.707107 0.707107 -0.000000
-0.707107 -0.707107 -0.000000
0.000000 0.707107 -0.707107
-0.000000 -0.707107 0.707107
0.000000 -0.707107 0.707107
0.000000 0.707107 -0.707107
0.707107 0.707107 0.000000
-0.707107 -0.707107 -0.000000
-0.707107 0.000000 0.707107
0.707107 -0.000000 -0.707107
0.707107 -0.000000 0.707107
-0.707107 0.000000 -0.707107
0.000000 0.707107 0.707107
0.000000 -0.707107 -0.707107
-0.707107 0.707107 0.000000
0.707107 -0.707107 -0.000000
0.000000 -0.707107 -0.707107
-0.000000 0.707107 0.707107
0.707107 0.707107 0.000000
-0.707107 -0.000000 0.707107
-0.000000 -0.707107 -0.707107
-0.000000 -0.707107 -0.707107
0.000000 0.707107 0.707107
-0.707107 -0.707107 0.000000
0.707107 0.707107 -0.000000
-0.707107 0.000000 -0.707107
0.707107 -0.000000 0.707107
0.000000 0.707107 0.707107
-0.000000 -0.707107 -0.707107
-0.000000 -0.707107 -0.707107
0.000000 0.707107 0.707107
0.707107 -0.707107 0.000000
-0.707107 0.707107 0.000000
-0.707107 0.000000 -0.707107
0.707107 0.000000 0.707107
-0.707107 0.707107 0.000000
0.707107 -0.707107 -0.000000
0.000000 -0.707107 -0.707107
-0.000000 0.707107 0.707107
0.707107 -0.707107 -0.000000
-0.707107 0.707107 0.000000
0.707107 -0.707107 -0.000000
-0.000000 1.414214 -0.000000
-0.707107 -0.707107 -0.000000
-0.707107 -0.000000 -0.707107
0.707107 0.000000 0.707107
0.707107 0.707107 -0.000000
-0.707107 -0.707107 0.000000
0.000000 -0.707107 0.707107
0.707107 0.707107 0.000000
-0.707107 0.000000 -0.707107
0.707107 0.000000 0.707107
-0.707107 -0.000000 -0.707107
-0.707107 -0.000000 0.707107
0.707107 0.000000 -0.707107
-0.000000 0.707107 0.707107
0.000000 -0.707107 -0.707107
-0.707107 -0.707107 0.000000
0.707107 -0.000000 -0.707107
-0.707107 0.000000 0.707107
-0.707107 -0.000000 -0.707107
0.707107 0.000000 0.707107
-0.707107 0.000000 -0.707107
0.000000 -0.707107 0.707107
0.707107 0.707107 -0.000000
-0.000000 0.707107 -0.707107
0.000000 -0.707107 0.707107
-0.000000 -0.707107 0.707107
0.000000 0.707107 -0.707107
-0.707107 0.707107 0.000000
0.707107 -0.000000 0.707107
0.000000 -0.707107 -0.707107
-0.707107 -0.707107 0.000000
0.707107 0.707107 -0.000000
0.707107 -0.707107 0.000000
-0.707107 0.707107 -0.000000
0.707107 -0.000000 -0.707107
-0.707107 0.000000 0.707107
0.000000 -0.707107 -0.707107
-0.000000 0.707107 0.707107
-0.707107 0.000000 0.707107
0.707107 -0.000000 -0.707107
0.000000 -0.707107 -0.707107
-0.000000 0.707107 0.707107
-0.707107 0.707107 0.000000
0.707107 -0.707107 0.000000
0.707107 0.000000 0.707107
-0.707107 -0.000000 -0.707107
0.000000 0.707107 0.707107
-0.000000 -0.707107 -0.707107
-0.707107 -0.000000 -0.707107
0.707107 0.707107 -0.000000
-0.707107 -0.707107 -0.000000
-0.000000 -0.707107 0.707107
0.000000 0.707107 -0.707107
0.000000 0.707107 0.707107
0.707107 0.707107 -0.000000
-0.707107 -0.707107 0.000000
0.707107 -0.707107 -0.000000
-0.000000 0.707107 0.707107
-0.707107 -0.000000 -0.707107
-0.000000 0.707107 -0.707107
0.000000 -0.707107 0.707107
0.000000 0.707107 -0.707107
-0.000000 -0.707107 0.707107
0.707107 0.000000 0.707107
-0.707107 -0.000000 -0.707107
0.000000 0.707107 0.707107
0.000000 0.707107 0.707107
-0.000000 -0.707107 -0.707107
-0.707107 0.707107 0.000000
0.707107 -0.707107 -0.000000
0.707107 0.000000 0.707107
-0.707107 0.000000 -0.707107
-0.707107 0.707107 0.000000
0.707107 -0.707107 -0.000000
-0.000000 -0.707107 0.707107
-0.707107 0.707107 0.000000
0.707107 0.000000 -0.707107
0.000000 -0.707107 -0.707107
-0.000000 0.707107 0.707107
-0.000000 0.707107 -0.707107
0.707107 -0.707107 0.000000
-0.707107 0.000000 0.707107
-0.707107 0.707107 0.000000
-0.000000 -0.707107 0.707107
-0.000000 -0.707107 0.707107
0.000000 0.707107 -0.707107
0.707107 0.000000 0.707107
-0.707107 -0.000000 -0.707107
0.707107 0.707107 0.000000
-0.707107 -0.707107 -0.000000
0.707107 -0.707107 0.000000
-0.707107 0.707107 -0.000000
-0.707107 0.707107 0.000000
0.707107 -0.707107 -0.000000
-0.000000 -0.707107 0.707107
-0.000000 0.707107 -0.707107
0.707107 0.707107 0.000000
-0.707107 -0.707107 -0.000000
0.707107 0.000000 0.707107
-0.707107 -0.000000 -0.707107
-0.707107 -0.707107 0.000000
0.707107 0.707107 -0.000000
-0.000000 -0.707107 0.707107
0.000000 0.707107 -0.707107
0.707107 -0.000000 0.707107
-0.707107 0.000000 -0.707107
0.707107 -0.707107 0.000000
-0.707107 0.707107 -0.000000
0.707107 0.000000 0.707107
-0.707107 -0.000000 -0.707107
0.707107 0.707107 -0.000000
-0.707107 -0.707107 0.000000
0.000000 0.707107 -0.707107
-0.000000 -0.707107 0.707107
-0.707107 -0.707107 0.000000
0.707107 0.707107 -0.000000
0.000000 0.707107 0.707107
-0.000000 -0.707107 -0.707107
-0.000000 0.707107 0.707107
0.000000 -0.707107 -0.707107
-0.000000 -0.707107 0.707107
-0.000000 0.707107 -0.707107
0.000000 -0.707107 -0.707107
0.000000 0.707107 0.707107
0.707107 -0.707107 0.000000
-0.707107 0.707107 -0.000000
0.707107 0.000000 0.707107
0.707107 0.000000 0.707107
-0.707107 -0.000000 -0.707107
0.000000 0.707107 0.707107
-0.000000 -0.707107 -0.707107
0.707107 -0.000000 0.707107
-0.707107 0.000000 -0.707107
-0.000000 -0.707107 0.707107
0.000000 0.707107 -0.707107
-0.000000 0.707107 0.707107
0.000000 -0.707107 -0.707107
-0.707107 -0.000000 0.707107
-0.707107 -0.000000 0.707107
0.707107 0.000000 -0.707107
-0.707107 -0.000000 -0.707107
0.707107 0.000000 0.707107
-0.707107 0.000000 0.707107
0.707107 -0.000000 -0.707107
0.707107 0.707107 0.000000
-0.707107 -0.707107 -0.000000
0.707107 -0.000000 0.707107
-0.707107 -0.707107 -0.000000
-0.000000 0.707107 0.707107
0.707107 0.000000 -0.707107
0.707107 0.000000 0.707107
-0.707107 -0.000000 -0.707107