# vtk DataFile Version 3.0
Configuration exported from OpenDiS
ASCII
DATASET UNSTRUCTURED_GRID
POINTS 27396 FLOAT
-29412.000000 -29412.000000 -29412.000000
29412.000000 -29412.000000 -29412.000000
-29412.000000 29412.000000 -29412.000000
-29412.000000 -29412.000000 29412.000000
29412.000000 29412.000000 -29412.000000
29412.000000 -29412.000000 29412.000000
-29412.000000 29412.000000 29412.000000
29412.000000 29412.000000 29412.000000
-8071.906225 -3171.865437 -17075.029851
-7196.889241 -3121.135943 -16250.742361
-8071.906225 -3171.865437 -17075.029851
-9375.842203 -3297.039210 -18253.792056
-3057.218879 -29321.982529 -7407.067516
-3147.236351 -29412.000001 -7407.067516
-3147.236351 29411.999988 -7407.067516
-3905.587441 28653.648910 -7407.067516
-3057.218879 -29321.982529 -7407.067516
-3057.218879 -29412.000001 -7497.084987
-3057.218879 29411.999988 -7497.084987
-3057.218879 28608.561173 -8300.523814
-3057.218879 -29321.982529 -7407.067516
-2540.599587 -29095.053373 -7696.757653
20293.657720 9377.965102 25075.261370
20293.657720 8900.384585 24613.908033
20293.657720 9377.965102 25075.261370
20293.657720 10363.715896 26057.132320
2123.820736 -21901.338800 5769.695225
2822.487309 -21479.900450 6046.923448
2123.820736 -21901.338800 5769.695225
878.565372 -22624.412865 5247.513926
25568.912203 -21725.504365 -2146.303192
24990.001474 -22351.063872 -3350.773426
25568.912203 -21725.504365 -2146.303192
26047.709101 -21214.643571 -1156.645499
29394.519708 -24967.578677 20077.249964
28367.434364 -26003.737347 20086.323290
29394.519708 -24967.578677 20077.249964
29412.000000 -24938.185683 20065.337262
-29411.999988 -24938.185683 20065.337262
-28894.612136 -24068.201461 19712.740904
-14554.362893 12687.857542 17038.634694
-15262.715409 12913.986633 17973.116301
-14554.362893 12687.857542 17038.634694
-13920.530835 12181.389569 15898.334663
5944.220966 -15734.092914 -2820.617746
7012.262426 -14878.955015 -2607.714185
5944.220966 -15734.092914 -2820.617746
5698.966042 -16144.124488 -2165.331248
5944.220966 -15734.092914 -2820.617746
5734.606962 -16266.791118 -3143.701946
-2580.732853 -12646.285404 8661.127445
-1686.620135 -12646.285404 7767.014727
-2580.732853 -12646.285404 8661.127445
-3471.066615 -12646.285404 9551.461206
3815.424697 25638.080578 -1014.586743
4677.836387 25638.080578 -1876.998434
3815.424697 25638.080578 -1014.586743
2959.601595 25638.080578 -157.907815
7079.657955 17441.141893 14790.684898
7841.634833 17441.141893 15552.661776
7079.657955 17441.141893 14790.684898
6360.481202 17441.141893 14071.508144
-18618.729362 -23758.660925 -28521.851303
-19119.749910 -22864.544829 -28914.946851
-18618.729362 -23758.660925 -28521.851303
-18179.584286 -24799.657777 -27919.999527
-24608.967998 -6903.313460 8052.007558
-23884.877001 -6482.101985 9197.310029
-24608.967998 -6903.313460 8052.007558
-25417.306041 -7059.627547 7399.988367
-696.436187 -3409.086539 -4501.784614
-1799.490291 -3409.086539 -5604.838718
-696.436187 -3409.086539 -4501.784614
232.886812 -3409.086539 -3572.276227
-23864.101324 -17879.838117 28909.542855
-23092.786139 -17164.906051 28965.925974
-23864.101324 -17879.838117 28909.542855
-25046.600042 -18957.469643 28804.675663
21672.379504 22996.901681 -24693.556115
22572.722007 22996.901681 -25599.522920
21672.379504 22996.901681 -24693.556115
20269.604471 22996.901681 -23305.531996
1235.007461 21202.293196 22041.038770
437.432155 22544.767242 22585.937509
1235.007461 21202.293196 22041.038770
1612.719235 20408.213352 21624.670700
13395.906627 23141.539548 -13091.609704
12453.852779 23226.105763 -13949.097337
13395.906627 23141.539548 -13091.609704
14212.947086 22486.012095 -14564.177616
13395.906627 23141.539548 -13091.609704
13329.784155 23836.402645 -12330.624135
-27466.545960 -22333.626657 20019.249531
-27768.625151 -22635.705848 20019.249531
-27466.545960 -22333.626657 20019.249531
-26282.273397 -21149.354094 20019.249531
-12800.193140 -18898.403976 26213.115734
-12234.692044 -19165.124533 25380.894081
-12800.193140 -18898.403976 26213.115734
-13399.735855 -18641.609735 27069.452691
-13763.312790 16866.050705 20425.777753
-14729.528110 16321.031214 20846.973583
-13763.312790 16866.050705 20425.777753
-13204.327293 17175.286141 20176.027694
-5962.047803 -16269.466796 -23965.178151
-5201.430848 -16203.706407 -24660.034716
-5962.047803 -16269.466796 -23965.178151
-6744.680833 -16295.526321 -23208.604645
-21508.721737 12132.142906 13159.308846
-21943.315257 10867.222703 12328.982162
-21508.721737 12132.142906 13159.308846
-22857.010780 12086.816194 11765.693091
-21508.721737 12132.142906 13159.308846
-20921.213526 12264.317363 13878.991515
-21508.721737 12132.142906 13159.308846
-21232.730937 12719.991218 13471.166357
7747.258514 -24241.480135 -7299.277500
7197.802017 -23380.768561 -6988.022424
7747.258514 -24241.480135 -7299.277500
8331.189958 -25217.564535 -7691.430457
-3120.062893 26424.948990 22908.624210
-3898.820707 27203.706804 22908.624210
-3120.062893 26424.948990 22908.624210
-2341.305079 25646.191176 22908.624210
744.358730 20330.706743 20833.816804
1612.719235 20408.213352 21624.670700
744.358730 20330.706743 20833.816804
-50.582446 20193.208499 20176.373873
-9841.566022 -10151.431263 11444.330128
-9094.394472 -10225.592026 12117.340915
-9841.566022 -10151.431263 11444.330128
-10537.193102 -10073.699933 10826.434378
16267.288074 10904.221758 2208.951717
15643.347261 10716.306500 3020.807774
16267.288074 10904.221758 2208.951717
16999.025764 12182.454173 2755.446442
16267.288074 10904.221758 2208.951717
16381.750165 10904.221758 2094.489626
-27273.889357 -9372.101661 -4935.454929
-27273.889357 -8660.440598 -4223.793866
-27273.889357 -9372.101661 -4935.454929
-27273.889357 -10065.780727 -5629.133995
14023.594023 -10249.249325 -20021.964838
13868.230095 -11484.139046 -21101.490631
14023.594023 -10249.249325 -20021.964838
14126.149238 -9357.378088 -19232.648817
4718.872750 -6756.120698 12078.404685
4718.872750 -5974.289879 12860.235718
4718.872750 -6756.120698 12078.404685
4718.872750 -7655.267716 11179.257667
4672.260931 -15870.201347 3481.781996
5269.652946 -16933.781037 3947.969671
4672.260931 -15870.201347 3481.781996
4460.913190 -15467.650725 3290.579115
-16788.530965 24262.056682 -15898.418813
-17818.695649 24262.056682 -16928.583497
-16788.530965 24262.056682 -15898.418813
-15904.225616 24262.056682 -15014.113464
9635.350762 -19216.745951 -6084.576083
9722.094021 -18691.212469 -5645.785861
9635.350762 -19216.745951 -6084.576083
9545.180403 -18426.101159 -6785.050516
-6581.960720 19859.320458 -9615.198193
-7413.517385 19027.763792 -9615.198193
-6581.960720 19859.320458 -9615.198193
-5689.790828 20751.490352 -9615.198193
-27393.230798 -17690.291611 -29406.448862
-27305.989922 -17771.981349 -29412.000000
-27305.989922 -17771.981349 29411.999988
-26209.652712 -18798.558609 29342.240049
-27393.230798 -17690.291611 -29406.448862
-27852.310830 -17341.671505 -29295.988937
19571.346325 -1956.332944 12315.522115
20690.805564 -869.175565 12347.823975
19571.346325 -1956.332944 12315.522115
19073.916533 -2586.060768 12447.820147
-27565.489683 25482.655923 -22846.621940
-28445.096223 26361.615465 -22846.621940
-27565.489683 25482.655923 -22846.621940
-26618.713987 24535.880150 -22846.621940
14662.158075 21532.675228 16084.379815
15335.811800 20789.591476 16014.949788
14662.158075 21532.675228 16084.379815
13467.172297 22748.053719 16104.772528
-9679.858440 -8637.598542 -9161.325842
-9669.963242 -9809.359347 -10342.981845
-9679.858440 -8637.598542 -9161.325842
-10002.495897 -7497.368959 -7698.458803
28177.213765 17934.825390 4097.560576
27506.401181 17592.538879 4426.086648
28177.213765 17934.825390 4097.560576
28844.070595 18399.072330 3894.950686
-7547.668776 18306.684538 20954.206742
-8005.587820 19325.509969 21515.113128
-7547.668776 18306.684538 20954.206742
-7052.568710 17188.598103 20331.220371
-17220.060415 346.121998 23547.380783
-16601.197734 -426.778422 24939.143884
-17220.060415 346.121998 23547.380783
-18005.768057 930.902314 22176.892824
7092.643662 6809.236073 22926.599276
7918.840838 7856.676366 22705.356158
7092.643662 6809.236073 22926.599276
6474.027905 6006.874976 23110.344616
-12834.409765 -16037.518880 -13406.694856
-12978.616155 -15205.481962 -12430.451547
-12834.409765 -16037.518880 -13406.694856
-12804.152865 -16950.875259 -14350.308176
14073.349999 -7142.165835 5383.101571
14694.709228 -7780.624690 5383.101571
14073.349999 -7142.165835 5383.101571
12926.475920 -6012.528613 5383.101571
-23195.628156 -18506.328006 23805.370426
-22402.828381 -18835.943887 23342.186532
-23195.628156 -18506.328006 23805.370426
-22224.341385 -18046.371922 24316.701114
16894.912676 9799.570967 476.676325
16985.648790 8945.961678 -467.669079
16894.912676 9799.570967 476.676325
16610.882094 10659.366133 1620.502073
-6519.688831 -12594.754988 -23417.281711
-6519.688831 -11932.660004 -24079.376695
-6519.688831 -12594.754988 -23417.281711
-6519.688831 -13323.376379 -22619.410246
13061.566740 27664.531384 12734.493561
12952.160071 26857.448534 13432.169742
13061.566740 27664.531384 12734.493561
13205.250920 28439.156338 12103.552787
-13330.286635 -16714.624120 22934.544819
-12434.156929 -17016.337513 23528.961133
-13330.286635 -16714.624120 22934.544819
-14298.382375 -16342.703641 22338.369557
3095.560694 12360.821108 -9144.798711
3541.264150 13339.176658 -9677.450804
3095.560694 12360.821108 -9144.798711
2533.309308 11034.774416 -8381.003404
-2908.177900 -3409.086539 -6713.526327
-1799.490291 -3409.086539 -5604.838718
-2908.177900 -3409.086539 -6713.526327
-3741.558505 -3409.086539 -7545.666471
-23090.680975 27943.252937 -7223.200838
-21987.241102 28637.895455 -7631.998193
-23090.680975 27943.252937 -7223.200838
-24263.509900 27382.857061 -6610.767789
8948.898684 4978.563117 22404.094740
8686.668974 4983.183744 22137.244402
8948.898684 4978.563117 22404.094740
9838.063142 5078.720328 21615.087494
8948.898684 4978.563117 22404.094740
8948.898684 4103.465543 23279.192297
[...]
CELL_DATA 13695
VECTORS Burgers FLOAT
0.000000 0.000000 0.000000
0.707107 0.707107 0.000000
-0.707107 -0.707107 0.000000
-0.707107 0.707107 0.000000
-0.707107 0.707107 0.000000
0.707107 -0.000000 0.707107
0.707107 -0.000000 0.707107
0.000000 -0.707107 -0.707107
0.000000 -0.707107 0.707107
0.000000 0.707107 -0.707107
-0.707107 0.000000 -0.707107
0.707107 0.000000 0.707107
-0.707107 0.707107 -0.000000
0.707107 -0.707107 0.000000
0.707107 0.000000 0.707107
-0.707107 0.000000 -0.707107
-0.707107 0.000000 -0.707107
-0.000000 -0.707107 -0.707107
0.000000 0.707107 0.707107
-0.707107 -0.707107 0.000000
0.707107 0.000000 -0.707107
0.000000 0.707107 0.707107
-0.707107 0.000000 -0.707107
0.707107 0.000000 0.707107
-0.707107 0.000000 -0.707107
0.707107 0.000000 0.707107
-0.707107 0.000000 0.707107
0.707107 -0.000000 -0.707107
0.707107 -0.000000 -0.707107
-0.707107 0.000000 0.707107
-0.707107 -0.000000 -0.707107
0.707107 -0.000000 0.707107
0.707107 -0.000000 -0.707107
-0.707107 0.000000 0.707107
-0.707107 -0.707107 0.000000
0.707107 0.707107 -0.000000
-0.707107 0.000000 -0.707107
0.707107 0.000000 0.707107
0.000000 -0.707107 -0.707107
-0.000000 0.707107 0.707107
-0.000000 -0.707107 -0.707107
-0.707107 -0.000000 0.707107
0.707107 0.707107 0.000000
-0.000000 1.414214 0.000000
0.000000 -1.414214 -0.000000
-0.000000 0.707107 0.707107
0.000000 -0.707107 -0.707107
0.000000 0.707107 0.707107
-0.000000 -0.707107 -0.707107
-0.707107 -0.707107 0.000000
0.707107 0.707107 -0.000000
0.707107 0.707107 0.000000
0.707107 -0.707107 -0.000000
-0.707107 0.707107 0.000000
-0.707107 -0.707107 -0.000000
-0.000000 -0.707107 -0.707107
0.000000 0.707107 0.707107
-0.707107 -0.707107 0.000000
0.707107 0.707107 -0.000000
-0.707107 0.000000 -0.707107
0.707107 -0.000000 0.707107
0.000000 0.707107 0.707107
-0.000000 -0.707107 -0.707107
-0.000000 -0.707107 0.707107
0.707107 0.000000 -0.707107
-0.707107 0.707107 -0.000000
0.000000 0.707107 -0.707107
-0.000000 -0.707107 0.707107
-0.707107 -0.707107 -0.000000
0.707107 0.707107 -0.000000
-0.000000 0.707107 -0.707107
-0.000000 -0.707107 0.707107
-0.707107 0.707107 -0.000000
0.707107 -0.707107 -0.000000
0.707107 -0.000000 -0.707107
-0.707107 -0.000000 0.707107
0.707107 0.000000 -0.707107
-0.707107 0.000000 0.707107
-0.707107 0.707107 -0.000000
0.707107 -0.707107 -0.000000
-0.707107 0.000000 0.707107
-0.707107 0.000000 0.707107
0.707107 -0.000000 -0.707107
0.000000 -0.707107 0.707107
-0.000000 0.707107 -0.707107
-0.707107 -0.707107 -0.000000
0.707107 0.707107 0.000000
0.707107 0.000000 0.707107
-0.707107 -0.000000 -0.707107
0.000000 0.707107 0.707107
0.000000 -0.707107 -0.707107
0.000000 0.707107 0.707107
-0.000000 -0.707107 -0.707107
0.707107 -0.707107 0.000000
-0.707107 0.707107 -0.000000
0.707107 0.000000 0.707107
-0.707107 -0.000000 -0.707107
-0.707107 -0.707107 -0.000000
0.707107 0.707107 0.000000
-0.000000 -0.707107 -0.707107
0.000000 0.707107 0.707107
0.707107 0.707107 -0.000000
-0.707107 -0.707107 0.000000
-0.000000 0.707107 -0.707107
0.000000 -0.707107 0.707107
-0.707107 0.000000 0.707107
0.707107 -0.000000 -0.707107
-0.000000 0.707107 0.707107
-0.000000 -0.707107 -0.707107
0.707107 0.707107 -0.000000
-0.707107 -0.707107 0.000000
0.000000 0.707107 0.707107
-0.000000 -0.707107 -0.707107
-0.707107 -0.707107 -0.000000
0.707107 0.707107 0.000000
-0.707107 0.000000 0.707107
0.707107 0.000000 -0.707107
0.707107 0.000000 -0.707107
-0.707107 -0.000000 0.707107
0.707107 0.707107 0.000000
-0.707107 -0.000000 0.707107
-0.000000 -0.707107 -0.707107
0.707107 -0.000000 0.707107
-0.707107 0.000000 -0.707107
0.000000 0.707107 0.707107
-0.000000 -0.707107 -0.707107
-0.707107 -0.707107 0.000000
0.707107 0.707107 -0.000000
-0.707107 -0.000000 0.707107
0.707107 -0.000000 -0.707107
-0.707107 -0.000000 0.707107
0.707107 0.000000 -0.707107
0.707107 -0.707107 -0.000000
-0.707107 0.707107 0.000000
-0.707107 -0.707107 0.000000
0.707107 0.707107 0.000000
0.707107 0.000000 -0.707107
-0.707107 -0.000000 0.707107
0.707107 0.000000 -0.707107
-0.707107 0.000000 0.707107
-0.707107 0.000000 -0.707107
0.707107 -0.000000 0.707107
0.707107 -0.707107 0.000000
-0.707107 0.707107 0.000000
0.707107 0.000000 -0.707107
-0.707107 -0.000000 0.707107
0.707107 0.000000 -0.707107
-0.707107 -0.000000 0.707107
-0.707107 0.707107 -0.000000
0.707107 -0.707107 -0.000000
0.000000 -0.707107 -0.707107
-0.000000 0.707107 0.707107
0.707107 -0.000000 0.707107
-0.707107 -0.000000 -0.707107
0.000000 -0.707107 -0.707107
-0.000000 0.707107 0.707107
0.000000 0.707107 0.707107
-0.000000 -0.707107 -0.707107
0.000000 0.707107 -0.707107
0.707107 -0.000000 0.707107
-0.707107 -0.707107 -0.000000
0.707107 0.707107 -0.000000
-0.707107 -0.707107 0.000000
-0.707107 0.000000 0.707107
0.707107 0.000000 -0.707107
0.000000 -0.707107 -0.707107
-0.707107 0.707107 0.000000
0.707107 0.000000 0.707107
-0.707107 0.707107 -0.000000
0.707107 -0.707107 0.000000
-0.707107 0.707107 -0.000000
0.707107 -0.707107 0.000000
-0.707107 -0.000000 -0.707107
0.707107 -0.000000 0.707107
-0.707107 0.707107 -0.000000
0.707107 -0.707107 0.000000
0.707107 -0.000000 -0.707107
-0.707107 -0.000000 0.707107
0.707107 -0.000000 -0.707107
-0.707107 -0.707107 0.000000
0.000000 0.707107 0.707107
0.707107 0.707107 0.000000
-0.707107 -0.707107 0.000000
-0.000000 -0.707107 -0.707107
0.000000 0.707107 0.707107
-0.707107 -0.000000 0.707107
0.707107 0.000000 -0.707107
0.707107 -0.707107 -0.000000
-0.707107 0.707107 0.000000
-0.707107 -0.707107 -0.000000
0.707107 0.707107 -0.000000
-0.707107 0.707107 0.000000
0.707107 -0.707107 0.000000
-0.000000 0.707107 0.707107
0.707107 0.707107 0.000000
-0.707107 -0.707107 -0.000000
0.000000 -0.707107 -0.707107
-0.707107 -0.707107 -0.000000
0.707107 0.707107 -0.000000
0.707107 0.000000 -0.707107
-0.707107 -0.000000 0.707107
-0.707107 -0.000000 -0.707107
0.707107 0.000000 0.707107
0.707107 -0.707107 0.000000
-0.707107 0.707107 -0.000000
0.707107 0.000000 0.707107
-0.707107 -0.000000 -0.707107
-0.707107 -0.707107 0.000000
0.707107 0.707107 0.000000
0.000000 0.707107 0.707107
0.000000 -0.707107 -0.707107
0.707107 0.000000 -0.707107
-0.707107 -0.000000 0.707107
-0.000000 0.707107 -0.707107
-0.000000 -0.707107 0.707107
0.707107 0.707107 -0.000000
-0.707107 -0.707107 -0.000000
-0.707107 -0.000000 -0.707107
0.707107 0.000000 0.707107
0.707107 0.707107 -0.000000
-0.707107 -0.707107 -0.000000
-0.707107 -0.707107 -0.000000
0.000000 -0.707107 0.707107
-0.000000 0.707107 -0.707107
-0.000000 0.707107 -0.707107
0.707107 -0.000000 0.707107
-0.707107 -0.000000 -0.707107
0.000000 0.707107 -0.707107
-0.000000 -0.707107 0.707107
0.000000 0.707107 -0.707107
-0.000000 -0.707107 0.707107
-0.707107 -0.707107 -0.000000
0.707107 0.707107 -0.000000
-0.000000 0.707107 -0.707107
-0.000000 -0.707107 0.707107
-0.707107 -0.000000 -0.707107
0.707107 0.000000 0.707107
0.707107 0.000000 0.707107
0.707107 0.707107 -0.000000
-0.707107 -0.707107 -0.000000
0.707107 -0.707107 0.000000
-0.707107 0.707107 0.000000
0.707107 0.707107 -0.000000
-0.707107 -0.707107 0.000000
1.414214 0.000000 0.000000
-1.414214 -0.000000 -0.000000
-0.707107 -0.000000 0.707107
0.707107 -0.000000 -0.707107
-0.707107 0.000000 -0.707107
0.707107 0.000000 0.707107
0.707107 -0.707107 -0.000000
-0.707107 0.707107 -0.000000
0.707107 -0.000000 0.707107
-0.707107 -0.000000 -0.707107
-0.707107 0.000000 -0.707107
0.707107 -0.000000 0.707107
0.000000 -0.707107 -0.707107
-0.000000 0.707107 0.707107
-0.000000 0.707107 0.707107
-0.000000 0.707107 -0.707107
0.000000 -0.707107 0.707107
-0.707107 -0.000000 0.707107
0.707107 0.000000 -0.707107
0.707107 -0.707107 -0.000000
-0.707107 0.707107 0.000000
0.707107 0.707107 0.000000
-0.707107 -0.707107 0.000000
-0.707107 0.000000 -0.707107
0.707107 -0.707107 -0.000000
-0.707107 0.707107 -0.000000
-0.707107 0.707107 0.000000
0.000000 -0.707107 -0.707107
0.000000 -0.707107 -0.707107
0.707107 -0.000000 0.707107
-0.707107 0.707107 0.000000
0.707107 -0.707107 -0.000000
0.707107 -0.707107 -0.000000
-0.707107 0.707107 0.000000
-0.707107 -0.707107 -0.000000
0.707107 0.707107 0.000000
0.000000 -0.707107 -0.707107
-0.707107 0.707107 -0.000000
-0.707107 -0.707107 -0.000000
0.707107 0.707107 -0.000000
0.000000 -0.707107 0.707107
0.000000 0.707107 -0.707107
0.000000 0.707107 0.707107
-0.707107 -0.000000 -0.707107
0.707107 -0.707107 0.000000
-0.000000 -0.707107 -0.707107
-0.000000 0.707107 0.707107
0.707107 -0.000000 0.707107
-0.707107 0.000000 -0.707107
-0.707107 -0.000000 0.707107
0.707107 0.000000 -0.707107
0.707107 0.707107 -0.000000
-0.707107 -0.707107 -0.000000
0.707107 -0.707107 0.000000
-0.707107 0.707107 0.000000
0.707107 0.707107 0.000000
-0.707107 -0.707107 -0.000000
-0.707107 0.000000 0.707107
0.707107 -0.707107 -0.000000
0.707107 -0.707107 -0.000000
0.000000 0.707107 -0.707107
-0.707107 -0.000000 -0.707107
0.707107 -0.000000 0.707107
0.000000 0.707107 0.707107
0.000000 -0.707107 -0.707107
-0.707107 -0.707107 -0.000000
0.707107 0.000000 0.707107
0.000000 0.707107 -0.707107
-0.707107 -0.000000 0.707107
-0.707107 0.707107 -0.000000
0.707107 0.000000 -0.707107
0.707107 -0.707107 -0.000000
-0.707107 0.000000 -0.707107
0.707107 -0.000000 0.707107
0.707107 0.000000 -0.707107
-0.707107 0.707107 0.000000
0.000000 -0.707107 0.707107
-0.000000 -0.707107 -0.707107
-0.000000 0.707107 0.707107
0.707107 0.707107 0.000000
-0.707107 -0.707107 0.000000
-0.000000 0.707107 -0.707107
0.707107 0.000000 0.707107
-0.707107 -0.707107 -0.000000
-0.707107 -0.707107 0.000000
0.707107 0.707107 -0.000000
-0.000000 -0.707107 -0.707107
0.000000 0.707107 0.707107
0.707107 0.000000 -0.707107
-0.707107 -0.000000 0.707107
0.707107 0.707107 -0.000000
-0.707107 -0.707107 0.000000
0.707107 -0.707107 0.000000
-0.707107 0.000000 0.707107
-0.000000 0.707107 -0.707107
0.707107 -0.707107 0.000000
-0.707107 0.707107 0.000000
-0.707107 0.000000 0.707107
0.000000 -0.707107 -0.707107
0.707107 0.707107 0.000000
0.707107 -0.707107 -0.000000
-0.707107 0.707107 0.000000
-0.707107 0.707107 0.000000
-0.707107 0.707107 0.000000
0.707107 -0.707107 -0.000000
0.707107 0.000000 -0.707107
-0.707107 0.000000 0.707107
0.000000 0.707107 0.707107
-0.000000 -0.707107 -0.707107
-0.000000 -0.707107 -0.707107
-0.707107 -0.707107 -0.000000
0.707107 0.707107 -0.000000
-0.000000 0.707107 0.707107
-0.000000 -0.707107 -0.707107
-0.707107 0.707107 -0.000000
0.707107 -0.707107 0.000000
0.707107 0.000000 0.707107
-0.707107 -0.000000 -0.707107
0.707107 0.000000 -0.707107
-0.707107 -0.000000 0.707107
0.707107 0.000000 0.707107
0.707107 0.000000 0.707107
-0.707107 -0.000000 -0.707107
0.707107 0.707107 0.000000
-0.707107 -0.707107 -0.000000
0.000000 0.707107 0.707107
0.000000 -0.707107 -0.707107
0.000000 -0.707107 -0.707107
0.000000 0.707107 0.707107
0.707107 0.707107 0.000000
-0.707107 -0.707107 -0.000000
-0.707107 -0.000000 -0.707107
0.707107 -0.000000 0.707107
0.707107 0.707107 -0.000000
-0.707107 -0.707107 -0.000000
0.707107 -0.707107 0.000000
-0.707107 0.707107 -0.000000
0.707107 0.000000 0.707107
-0.707107 0.000000 -0.707107
0.707107 -0.707107 0.000000
-0.707107 0.707107 0.000000
-0.707107 0.707107 0.000000
0.707107 -0.707107 0.000000
-0.707107 -0.707107 0.000000
0.707107 0.707107 -0.000000
0.707107 0.707107 0.000000
-0.707107 -0.707107 -0.000000
0.000000 0.707107 -0.707107
-0.000000 -0.707107 0.707107
0.000000 0.707107 0.707107
-0.707107 0.000000 -0.707107
0.707107 -0.707107 -0.000000
0.707107 -0.707107 -0.000000
-0.707107 0.707107 0.000000
0.707107 -0.707107 0.000000
-0.707107 0.707107 -0.000000
-0.000000 0.707107 0.707107
0.000000 -0.707107 -0.707107
0.000000 -0.707107 -0.707107
0.707107 -0.707107 -0.000000
-0.707107 0.707107 0.000000
-0.707107 0.000000 0.707107
0.000000 0.707107 -0.707107
0.707107 -0.707107 -0.000000
-0.000000 -0.707107 -0.707107
-0.000000 0.707107 0.707107
0.000000 0.707107 -0.707107
-0.000000 -0.707107 0.707107
-0.000000 -0.707107 0.707107
-0.000000 0.707107 -0.707107
-0.707107 -0.707107 0.000000
0.707107 0.707107 -0.000000
0.707107 -0.000000 0.707107
-0.707107 0.000000 -0.707107
0.707107 0.000000 0.707107
-0.707107 -0.000000 -0.707107
0.000000 0.707107 -0.707107
-0.000000 -0.707107 0.707107
0.000000 0.707107 0.707107
0.000000 -0.707107 -0.707107
0.707107 0.000000 -0.707107
-0.707107 -0.000000 0.707107
0.707107 0.707107 -0.000000
-0.707107 -0.707107 0.000000
0.707107 -0.707107 -0.000000
-0.707107 0.707107 0.000000
0.707107 0.000000 0.707107
-0.707107 0.707107 -0.000000
0.000000 -0.707107 -0.707107
0.707107 -0.000000 0.707107
-0.707107 0.000000 -0.707107
0.707107 0.000000 0.707107
-0.000000 0.707107 -0.707107
-0.707107 -0.707107 0.000000
-0.000000 -0.707107 -0.707107
0.000000 0.707107 0.707107
0.707107 -0.707107 -0.000000
-0.707107 0.707107 0.000000
-0.707107 -0.707107 0.000000
0.707107 0.707107 -0.000000
0.707107 -0.707107 -0.000000
-0.707107 0.707107 0.000000
-0.707107 0.000000 0.707107
0.707107 -0.000000 -0.707107
0.707107 0.000000 -0.707107
-0.000000 -0.707107 0.707107
-0.707107 0.707107 -0.000000
-0.707107 -0.000000 -0.707107
-0.707107 -0.000000 -0.707107
0.707107 -0.000000 0.707107
0.000000 -0.707107 -0.707107
-0.000000 0.707107 0.707107
0.000000 0.707107 0.707107
-0.000000 -0.707107 -0.707107
0.707107 0.707107 -0.000000
-0.707107 -0.707107 0.000000
0.707107 -0.000000 0.707107
-0.707107 0.000000 -0.707107
-0.707107 0.707107 0.000000
0.707107 -0.707107 -0.000000
0.707107 0.707107 -0.000000
-0.707107 -0.707107 0.000000
-0.000000 0.707107 -0.707107
0.000000 -0.707107 0.707107
0.000000 0.707107 -0.707107
0.000000 -0.707107 0.707107
0.707107 0.000000 -0.707107
-0.707107 -0.000000 0.707107
-0.707107 0.707107 -0.000000
0.707107 -0.707107 0.000000
0.000000 -0.707107 0.707107
-0.000000 0.707107 -0.707107
-0.000000 -0.707107 -0.707107
0.000000 0.707107 0.707107
-0.000000 0.707107 0.707107
-0.000000 -0.707107 -0.707107
-0.000000 0.707107 -0.707107
0.000000 -0.707107 0.707107
0.000000 0.707107 0.707107
-0.000000 -0.707107 -0.707107
0.000000 0.707107 0.707107
-0.000000 -0.707107 -0.707107
-0.707107 -0.000000 -0.707107
0.707107 -0.000000 0.707107
-0.707107 0.707107 -0.000000
-0.707107 -0.707107 -0.000000
0.707107 -0.707107 0.000000
0.707107 0.707107 0.000000
-0.000000 0.707107 0.707107
-0.000000 -0.707107 -0.707107
0.000000 0.707107 0.707107
0.707107 -0.707107 0.000000
-0.707107 0.000000 -0.707107
-0.707107 0.707107 0.000000
0.000000 -0.707107 0.707107
-0.000000 -0.707107 -0.707107
0.000000 0.707107 0.707107
0.000000 0.707107 0.707107
-0.707107 -0.000000 0.707107
0.707107 0.000000 -0.707107
0.000000 0.707107 -0.707107
-0.000000 -0.707107 0.707107
-0.707107 -0.707107 0.000000
0.707107 0.707107 -0.000000
0.000000 0.707107 -0.707107
-0.000000 -0.707107 0.707107
0.707107 0.707107 -0.000000
-0.707107 -0.707107 -0.000000
-0.707107 -0.000000 -0.707107
0.707107 0.000000 0.707107
0.000000 -0.707107 0.707107
0.000000 0.707107 -0.707107
0.707107 0.707107 0.000000
-0.707107 -0.707107 -0.000000
0.707107 -0.000000 -0.707107
-0.707107 -0.000000 0.707107
0.000000 0.707107 0.707107
-0.000000 -0.707107 -0.707107
0.000000 0.707107 0.707107
0.000000 -0.707107 -0.707107
-0.707107 0.707107 0.000000
0.707107 -0.707107 -0.000000
0.000000 -0.707107 -0.707107
-0.000000 0.707107 0.707107
-0.707107 -0.000000 -0.707107
0.707107 -0.000000 0.707107
-0.707107 0.000000 0.707107
-0.000000 0.707107 -0.707107
-0.707107 -0.707107 0.000000
0.707107 0.707107 -0.000000
-0.707107 0.000000 -0.707107
0.707107 -0.000000 0.707107
0.000000 0.707107 0.707107
-0.000000 -0.707107 -0.707107
-0.000000 -0.707107 -0.707107
0.000000 0.707107 0.707107
-0.000000 0.707107 0.707107
-0.000000 -0.707107 -0.707107
-0.707107 -0.000000 -0.707107
0.707107 -0.707107 -0.000000
-0.000000 0.707107 0.707107
-0.000000 0.707107 0.707107
0.000000 0.707107 0.707107
-0.000000 -0.707107 -0.707107
-0.707107 -0.707107 0.000000
0.707107 0.707107 -0.000000
0.707107 -0.707107 -0.000000
0.707107 -0.707107 -0.000000
-0.707107 0.707107 0.000000
0.000000 0.707107 -0.707107
-0.000000 -0.707107 0.707107
-0.707107 -0.000000 -0.707107
0.707107 0.000000 0.707107
0.707107 0.707107 -0.000000
-0.707107 -0.707107 0.000000
-0.707107 0.000000 0.707107
0.707107 -0.000000 -0.707107
0.707107 0.000000 0.707107
-0.707107 -0.000000 -0.707107
-0.707107 -0.000000 0.707107
0.707107 0.000000 -0.707107
-0.000000 0.707107 0.707107
0.000000 -0.707107 -0.707107
-0.707107 0.000000 0.707107
0.707107 -0.000000 -0.707107
-0.707107 0.000000 0.707107
0.707107 -0.000000 -0.707107
0.707107 -0.707107 -0.000000
-0.707107 0.707107 -0.000000
-0.707107 0.000000 -0.707107
0.000000 -0.707107 0.707107
0.707107 0.707107 -0.000000
-0.000000 0.707107 0.707107
0.000000 -0.707107 -0.707107
0.000000 -0.707107 -0.707107
-0.000000 0.707107 0.707107
0.707107 -0.707107 0.000000
-0.707107 0.707107 0.000000
0.000000 0.707107 -0.707107
-0.000000 -0.707107 0.707107
0.707107 -0.707107 0.000000
-0.707107 0.707107 -0.000000
0.707107 -0.000000 -0.707107
-0.707107 0.000000 0.707107
0.000000 -0.707107 -0.707107
-0.000000 0.707107 0.707107
0.000000 0.707107 -0.707107
-0.000000 -0.707107 0.707107
0.707107 0.000000 -0.707107
-0.707107 -0.000000 0.707107
0.707107 0.000000 0.707107
-0.707107 -0.000000 -0.707107
0.000000 -0.707107 -0.707107
-0.000000 0.707107 0.707107
-0.000000 -0.707107 -0.707107
-0.000000 0.707107 0.707107
0.707107 0.000000 0.707107
-0.707107 -0.000000 -0.707107
0.707107 0.707107 -0.000000
-0.707107 -0.707107 -0.000000
-0.000000 -0.707107 0.707107
0.000000 0.707107 -0.707107
0.707107 -0.000000 -0.707107
-0.707107 0.000000 0.707107
0.707107 0.707107 -0.000000
-0.707107 -0.707107 0.000000
0.707107 -0.707107 0.000000
-0.707107 0.707107 -0.000000
-0.707107 0.707107 0.000000
0.707107 -0.707107 -0.000000
-0.707107 0.000000 -0.707107
0.707107 0.000000 0.707107
0.000000 0.707107 -0.707107
-0.000000 -0.707107 0.707107
-0.707107 0.000000 -0.707107
0.707107 -0.000000 0.707107
0.000000 0.707107 -0.707107
-0.707107 -0.707107 0.000000
0.707107 -0.000000 0.707107
0.000000 -0.707107 -0.707107
0.000000 0.707107 0.707107
0.707107 0.000000 0.707107
-0.707107 0.000000 -0.707107
-0.707107 0.707107 0.000000
-0.000000 -0.707107 0.707107
0.707107 0.707107 0.000000
-0.000000 0.707107 -0.707107
0.000000 -0.707107 0.707107
-0.707107 -0.707107 0.000000
-0.707107 0.707107 0.000000
0.707107 -0.707107 -0.000000
-0.000000 -0.707107 0.707107
0.000000 0.707107 -0.707107
0.707107 0.000000 0.707107
-0.707107 -0.000000 -0.707107
0.707107 0.707107 0.000000
-0.707107 -0.707107 -0.000000
-0.707107 0.707107 0.000000
0.707107 -0.707107 -0.000000
-0.707107 -0.707107 0.000000
0.707107 0.707107 -0.000000
-0.000000 -0.707107 0.707107
-0.000000 0.707107 -0.707107
0.000000 0.707107 -0.707107
-0.000000 -0.707107 0.707107
-0.707107 -0.000000 -0.707107
0.707107 -0.000000 0.707107
-0.707107 -0.707107 0.000000
0.707107 0.707107 -0.000000
-0.707107 -0.707107 -0.000000
0.707107 0.707107 -0.000000
-0.707107 -0.000000 -0.707107
0.707107 0.000000 0.707107
0.707107 -0.707107 0.000000
-0.707107 0.707107 -0.000000
-0.707107 0.707107 0.000000
0.707107 -0.707107 -0.000000
0.707107 0.707107 -0.000000
-0.707107 -0.707107 0.000000
-0.000000 -0.707107 -0.707107
-0.707107 0.000000 0.707107
0.707107 0.707107 0.000000
-0.707107 -0.707107 0.000000
0.707107 0.707107 -0.000000
-0.707107 0.707107 -0.000000
0.707107 -0.707107 0.000000
0.707107 -0.000000 0.707107
-0.707107 0.000000 -0.707107
-0.000000 -0.707107 0.707107
-0.000000 0.707107 -0.707107
0.000000 -0.707107 -0.707107
0.000000 0.707107 0.707107
0.707107 -0.707107 0.000000
-0.707107 0.707107 -0.000000
-0.000000 0.707107 0.707107
-0.000000 -0.707107 -0.707107
0.000000 0.707107 0.707107
-0.000000 -0.707107 -0.707107
0.707107 -0.000000 0.707107
-0.707107 0.000000 -0.707107
-0.000000 -0.707107 0.707107
0.000000 0.707107 -0.707107
-0.707107 0.707107 0.000000
-0.000000 -0.707107 -0.707107
0.707107 0.000000 0.707107
-0.707107 0.707107 0.000000
0.707107 -0.000000 -0.707107
-0.707107 -0.000000 0.707107
-0.000000 0.707107 0.707107
-0.707107 -0.707107 0.000000
0.707107 0.000000 -0.707107
-0.707107 0.707107 0.000000
0.707107 -0.707107 -0.000000
-0.707107 0.000000 -0.707107
0.707107 -0.000000 0.707107
-0.707107 -0.707107 -0.000000