# vtk DataFile Version 3.0
Configuration exported from OpenDiS
ASCII
DATASET UNSTRUCTURED_GRID
POINTS 31740 FLOAT
-29412.000000 -29412.000000 -29412.000000
29412.000000 -29412.000000 -29412.000000
-29412.000000 29412.000000 -29412.000000
-29412.000000 -29412.000000 29412.000000
29412.000000 29412.000000 -29412.000000
29412.000000 -29412.000000 29412.000000
-29412.000000 29412.000000 29412.000000
29412.000000 29412.000000 29412.000000
-4253.351998 -1666.177740 14728.513193
-4204.245515 -1003.287642 14016.516612
-4253.351998 -1666.177740 14728.513193
-4276.199537 -2336.963985 15422.146978
346.170467 20550.990946 20505.605969
346.170467 20974.136828 20082.453061
346.170467 20550.990946 20505.605969
1005.412561 20555.991646 21159.835995
346.170467 20550.990946 20505.605969
537.894304 20267.469974 20597.391736
20293.657720 9386.060519 25083.254902
20293.657720 8682.457827 24386.212832
20293.657720 9386.060519 25083.254902
20293.657720 10360.632289 26054.044391
-24080.868219 15804.569845 -11366.543903
-24450.582983 15962.825133 -10838.573851
-24080.868219 15804.569845 -11366.543903
-23455.856472 15554.021274 -12242.104221
27411.351713 -23587.353372 -2165.712688
27761.750086 -24948.139239 -3176.100182
27411.351713 -23587.353372 -2165.712688
27176.625704 -22415.708792 -1228.794118
-28546.404808 -24796.441403 20789.188174
-28579.730163 -26084.549851 22043.971267
-28546.404808 -24796.441403 20789.188174
-28894.612136 -24068.201461 19712.740904
-15359.561508 15858.820225 15975.066477
-16079.645948 16578.904665 15975.066477
-15359.561508 15858.820225 15975.066477
-14566.783459 15066.042176 15975.066477
22289.600578 24989.417511 28019.307104
21046.131231 26232.886858 28019.307104
22289.600578 24989.417511 28019.307104
23122.542418 24156.475671 28019.307104
9459.651258 7630.284425 -28928.804508
8735.640868 8354.294815 -28928.804508
9459.651258 7630.284425 -28928.804508
10199.471049 6890.464634 -28928.804508
3815.626694 25638.080578 -1014.788740
4677.836387 25638.080578 -1876.998434
3815.626694 25638.080578 -1014.788740
2960.330481 25638.080578 -158.637067
7079.657955 17441.141893 14790.684898
7841.634833 17441.141893 15552.661776
7079.657955 17441.141893 14790.684898
6360.481202 17441.141893 14071.508144
-25326.594800 8895.540856 6104.833733
-26081.576879 8895.540856 5350.218588
-25326.594800 8895.540856 6104.833733
-25413.756504 9807.013281 5280.523012
-22310.291639 7740.048816 -718.724646
-21544.486313 7740.048816 47.092389
-22310.291639 7740.048816 -718.724646
-22841.688943 7740.048816 -1250.132822
-520.419198 -3409.086539 -4331.719387
-906.488501 -3409.086539 -4711.878131
-520.419198 -3409.086539 -4331.719387
284.052694 -3409.086539 -3524.169063
-18368.491345 -9940.415029 -21706.110171
-18914.939269 -9757.061694 -21343.015582
-18368.491345 -9940.415029 -21706.110171
-17658.414116 -10174.356325 -22182.246104
-17506.786016 -11476.528402 24009.501299
-17126.388498 -11476.528260 24376.540234
-17506.786016 -11476.528402 24009.501299
-17857.452002 -11476.528534 23671.149803
1219.018922 21341.166223 22163.923257
867.324849 22163.174178 22634.237139
1219.018922 21341.166223 22163.923257
1474.548587 20553.338484 21631.625183
7170.442523 -291.215950 14629.514802
5989.701714 -332.098477 13489.656520
7170.442523 -291.215950 14629.514802
8030.603022 -543.677369 15742.136720
20346.885174 -26285.085204 -23294.704496
20669.519363 -26042.892638 -23214.262873
20346.885174 -26285.085204 -23294.704496
18914.151936 -27004.860221 -24007.662718
-8943.982691 14324.710110 -17991.217112
-8235.277382 13616.004801 -17991.217112
-8943.982691 14324.710110 -17991.217112
-9654.087416 15034.814835 -17991.217112
-17968.750206 27341.051900 -28174.215789
-17350.135580 27960.221490 -29412.000006
-17350.135580 27960.221490 29411.999982
-17347.784824 27962.574355 29407.296375
-17968.750206 27341.051900 -28174.215789
-18617.836633 26839.922531 -27023.999994
-29360.687854 -25105.580531 6061.169828
-29412.000000 -25205.170325 6109.447509
29411.999988 -25205.170325 6109.447509
28680.744879 -26624.435584 6797.458124
-29360.687854 -25105.580531 6061.169828
-28125.313773 -23857.245985 6048.208853
-9557.798598 -23378.631797 8006.974619
-10410.341760 -23049.045342 8529.931325
-9557.798598 -23378.631797 8006.974619
-8685.019757 -23752.955369 7508.519350
-26290.768777 24429.660676 14158.294211
-26988.266008 24664.183187 14621.268931
-26290.768777 24429.660676 14158.294211
-25603.693957 24177.494939 13723.385128
-3120.062891 26424.948988 22908.624210
-3898.820706 27203.706804 22908.624210
-3120.062891 26424.948988 22908.624210
-2814.400789 26119.286886 22908.624210
-22610.071728 11465.690974 27618.634539
-22610.071728 12154.582492 26920.167044
-22610.071728 11465.690974 27618.634539
-22610.071728 10750.750879 28333.646042
-27291.370935 16965.369600 -27430.657551
-27032.465359 17224.275177 -27430.657551
-27291.370935 16965.369600 -27430.657551
-28327.056313 15929.684222 -27430.657551
21653.026118 -11944.431666 6018.799709
22262.497007 -11476.527551 4941.425031
21653.026118 -11944.431666 6018.799709
21281.909769 -12335.854200 6781.320817
-24941.953381 16036.631394 27446.010500
-24154.513700 16056.297865 26638.904348
-24941.953381 16036.631394 27446.010500
-25296.658693 16020.258322 27817.088884
-1246.584091 -19325.110250 18992.594673
-553.633205 -19266.742476 19743.913334
-1246.584091 -19325.110250 18992.594673
-2255.578385 -19556.858624 17751.852006
4718.872750 -6691.334599 12143.190825
4718.872750 -5976.297572 12858.228423
4718.872750 -6691.334599 12143.190825
4718.872750 -8084.187259 10774.752729
4558.002877 -15831.921270 3557.759973
5269.652946 -17235.201251 4249.389886
4558.002877 -15831.921270 3557.759973
4385.372183 -15442.797672 3341.267069
24110.454533 27683.650760 -16850.831808
24518.096289 27116.744787 -17825.379538
24110.454533 27683.650760 -16850.831808
23558.021644 28377.792288 -15604.257391
6913.188298 -19216.745951 -3362.413619
5704.875685 -18391.582426 -2979.264531
6913.188298 -19216.745951 -3362.413619
7884.500836 -18334.598990 -3451.579196
6913.188298 -19216.745951 -3362.413619
6195.592842 -20346.698211 -2950.056816
2484.075422 1330.176541 17979.981865
3320.853866 1487.264242 18659.672608
2484.075422 1330.176541 17979.981865
1458.123881 1039.550176 17244.656689
4354.307828 -20707.587654 -14031.801647
5127.914439 -21871.677656 -13641.318252
4354.307828 -20707.587654 -14031.801647
3796.259785 -19674.822382 -14506.518877
6165.151801 -28088.077341 -27767.469966
7011.229941 -28954.842905 -27788.157390
6165.151801 -28088.077341 -27767.469966
5687.884019 -27594.699796 -27751.360202
-28056.279522 25936.621497 -22846.621940
-28807.186319 26630.863733 -22846.621944
-28056.279522 25936.621497 -22846.621940
-27301.114742 25201.499964 -22846.621940
14652.332922 21531.948416 16073.827850
15067.068869 21117.212469 16073.827850
14652.332922 21531.948416 16073.827850
13874.409939 22309.871399 16073.827849
27255.897348 -9921.309530 29218.811155
27915.208635 -9702.284147 28778.525251
27255.897348 -9921.309530 29218.811155
27255.897348 -9823.629812 29316.490874
27255.897348 -9921.309530 29218.811155
27255.897348 -9956.510201 29183.610550
-15062.930520 -11850.186101 21939.424415
-15057.314603 -11910.111434 22004.932485
-15062.930520 -11850.186101 21939.424415
-15517.346772 -12646.285409 21597.741368
-15062.930520 -11850.186101 21939.424415
-16021.883031 -11850.186101 22898.376927
-8619.585253 17825.833206 19401.438932
-8711.729420 18304.364706 19787.826264
-8619.585253 17825.833206 19401.438932
-8702.892366 17428.745922 18921.044536
-27273.889357 -5790.956148 -1354.309416
-27273.889357 -4976.114369 -539.467637
-27273.889357 -5790.956148 -1354.309416
-27273.889357 -6639.911648 -2200.218538
-28889.971385 -25521.044261 17218.244163
-29267.058317 -24471.083879 17891.117614
-28889.971385 -25521.044261 17218.244163
-28640.805763 -26605.571965 16382.882082
-28056.932096 14473.760426 4446.592804
-28603.420225 14554.323462 5073.643970
-28056.932096 14473.760426 4446.592804
-27616.051294 14230.223240 3762.174816
-9955.256687 21830.116693 24456.696535
-10605.778775 22983.478214 23953.857102
-9955.256687 21830.116693 24456.696535
-9113.584181 20592.036381 24853.104342
-23195.628156 -10085.950581 15384.993002
-23127.211968 -10160.258251 15390.884483
-23195.628156 -10085.950581 15384.993002
-22147.946751 -8928.951787 15275.675614
28301.230844 4052.903103 -10994.058293
28200.723756 4688.068987 -10459.399497
28301.230844 4052.903103 -10994.058293
28425.152956 3155.764243 -11767.275041
-23376.386719 -9360.285936 2809.982411
-23605.582331 -9350.661066 2571.161929
-23376.386719 -9360.285936 2809.982411
-22309.354757 -9162.395841 3679.124278
13939.391569 28067.672819 13209.176955
13687.505240 27240.707013 13784.256432
13939.391569 28067.672819 13209.176955
14213.099442 28896.109833 12654.447814
8111.201765 20088.992210 29135.772750
8214.280669 19915.843867 29411.999998
8214.280669 19915.843867 -29411.999990
8491.278361 19450.552816 -28669.711259
8111.201765 20088.992210 29135.772750
7754.910319 20520.796476 28347.677038
6854.285616 28907.360729 19061.340164
7273.940608 29341.079329 19061.339457
6854.285616 28907.360729 19061.340164
5984.134154 28032.250003 19065.450360
-906.488501 -3409.086539 -4711.878131
-1704.450573 -3718.252973 -5200.673506
-906.488501 -3409.086539 -4711.878131
-1212.163593 -2724.596545 -4333.021397
4383.893457 -27272.786389 12836.041660
4890.645200 -27642.109535 12973.470257
4383.893457 -27272.786389 12836.041660
3590.699693 -28113.240818 12883.302326
8948.898684 4978.563117 22404.094740
8285.281620 4619.407526 22099.640034
8948.898684 4978.563117 22404.094740
9071.345610 5727.688596 23030.773293
8948.898684 4978.563117 22404.094740
8948.898684 4103.526279 23279.131571
12945.071922 -10744.306970 5564.518049
12945.071922 -10414.948042 5231.432302
12945.071922 -10744.306970 5564.518049
12945.071922 -11603.519036 6449.303296
17794.034685 -18631.112897 -23902.331485
18520.594977 -18614.206829 -23192.677260
17794.034685 -18631.112897 -23902.331485
[...]
CELL_DATA 15867
VECTORS Burgers FLOAT
0.000000 0.000000 0.000000
0.707107 -0.707107 -0.000000
-0.707107 0.707107 0.000000
0.000000 0.707107 0.707107
-0.707107 0.000000 -0.707107
0.707107 -0.707107 0.000000
0.000000 -0.707107 0.707107
0.000000 0.707107 -0.707107
0.707107 0.000000 -0.707107
-0.707107 -0.000000 0.707107
-0.707107 0.707107 -0.000000
0.707107 -0.707107 0.000000
0.707107 0.000000 0.707107
-0.707107 0.000000 -0.707107
-0.707107 -0.707107 0.000000
0.707107 0.707107 -0.000000
-0.707107 -0.707107 0.000000
0.707107 0.707107 -0.000000
0.707107 0.707107 0.000000
-0.707107 -0.707107 -0.000000
-0.707107 0.000000 -0.707107
0.707107 0.000000 0.707107
-0.707107 0.000000 0.707107
0.707107 -0.000000 -0.707107
0.707107 0.000000 -0.707107
-0.707107 -0.000000 0.707107
-0.707107 -0.000000 0.707107
0.707107 0.000000 -0.707107
0.707107 -0.000000 -0.707107
-0.707107 0.000000 0.707107
-0.707107 0.707107 0.000000
0.707107 -0.707107 -0.000000
-0.707107 0.000000 0.707107
0.707107 -0.000000 -0.707107
0.000000 -0.707107 -0.707107
-0.000000 0.707107 0.707107
-0.000000 0.707107 -0.707107
0.000000 -0.707107 0.707107
-0.707107 -0.707107 -0.000000
0.707107 0.707107 0.000000
0.707107 0.707107 0.000000
-0.707107 -0.707107 -0.000000
0.707107 -0.000000 -0.707107
0.707107 -0.000000 -0.707107
-0.707107 0.000000 0.707107
-0.707107 0.000000 -0.707107
-0.707107 0.000000 -0.707107
0.707107 -0.000000 0.707107
0.707107 -0.707107 0.000000
-0.707107 0.707107 -0.000000
0.707107 -0.707107 0.000000
-0.707107 0.707107 -0.000000
-0.707107 -0.707107 0.000000
0.707107 0.707107 -0.000000
-0.000000 0.707107 0.707107
0.000000 -0.707107 -0.707107
0.707107 -0.707107 -0.000000
-0.707107 0.707107 0.000000
-0.707107 0.000000 0.707107
0.707107 -0.000000 -0.707107
-0.707107 0.707107 0.000000
0.707107 -0.707107 -0.000000
0.000000 0.707107 0.707107
-0.000000 -0.707107 -0.707107
-0.000000 0.707107 -0.707107
-0.000000 -0.707107 0.707107
-0.707107 0.707107 -0.000000
0.707107 -0.707107 -0.000000
-0.000000 0.707107 0.707107
0.000000 -0.707107 -0.707107
-0.707107 0.000000 0.707107
0.000000 -0.707107 -0.707107
0.707107 0.707107 0.000000
0.000000 -0.707107 0.707107
-0.000000 0.707107 -0.707107
0.000000 0.707107 -0.707107
-0.000000 -0.707107 0.707107
-0.000000 0.707107 0.707107
0.000000 -0.707107 -0.707107
-0.707107 -0.707107 -0.000000
0.707107 0.707107 0.000000
0.707107 0.707107 0.000000
-0.707107 -0.707107 -0.000000
-0.707107 -0.707107 -0.000000
0.000000 0.707107 -0.707107
0.707107 0.000000 0.707107
-0.000000 0.707107 -0.707107
-0.707107 -0.707107 0.000000
0.707107 -0.000000 0.707107
0.707107 -0.707107 0.000000
-0.707107 0.707107 -0.000000
0.000000 0.707107 -0.707107
-0.000000 -0.707107 0.707107
-0.707107 -0.000000 -0.707107
0.707107 0.000000 0.707107
0.000000 -0.707107 -0.707107
-0.000000 0.707107 0.707107
-0.000000 -0.707107 0.707107
0.000000 0.707107 -0.707107
-0.000000 0.707107 -0.707107
0.000000 -0.707107 0.707107
0.000000 -0.707107 -0.707107
-0.000000 0.707107 0.707107
-0.000000 -0.707107 0.707107
0.000000 0.707107 -0.707107
0.707107 0.707107 -0.000000
-0.707107 -0.707107 0.000000
0.707107 -0.000000 0.707107
0.707107 -0.000000 0.707107
-0.707107 0.000000 -0.707107
-0.707107 0.707107 -0.000000
0.707107 -0.707107 -0.000000
0.707107 0.707107 0.000000
0.000000 -0.707107 -0.707107
0.707107 0.000000 0.707107
-0.707107 -0.000000 -0.707107
0.707107 0.707107 0.000000
-0.707107 -0.000000 0.707107
-0.000000 -0.707107 -0.707107
0.000000 0.707107 0.707107
-0.000000 -0.707107 -0.707107
-0.707107 -0.707107 0.000000
0.707107 0.707107 -0.000000
0.000000 0.707107 -0.707107
-0.000000 -0.707107 0.707107
0.707107 0.000000 -0.707107
0.000000 0.707107 0.707107
-0.707107 -0.707107 -0.000000
0.707107 0.000000 -0.707107
-0.707107 -0.000000 0.707107
-0.707107 0.707107 -0.000000
0.000000 -0.707107 -0.707107
0.707107 -0.000000 0.707107
-0.000000 0.707107 -0.707107
0.000000 -0.707107 0.707107
-0.707107 0.000000 -0.707107
-0.000000 0.707107 0.707107
0.707107 -0.707107 0.000000
0.000000 0.707107 0.707107
0.000000 -0.707107 -0.707107
-0.000000 -0.707107 0.707107
0.000000 0.707107 -0.707107
0.707107 -0.707107 0.000000
-0.707107 0.707107 0.000000
0.707107 0.000000 -0.707107
-0.707107 -0.000000 0.707107
0.707107 -0.707107 0.000000
-0.707107 0.707107 -0.000000
0.707107 0.000000 0.707107
-0.707107 -0.000000 -0.707107
0.000000 -0.707107 -0.707107
-0.000000 0.707107 0.707107
0.707107 -0.000000 0.707107
-0.707107 -0.000000 -0.707107
0.000000 -0.707107 -0.707107
-0.000000 0.707107 0.707107
-0.707107 -0.000000 0.707107
0.707107 0.000000 -0.707107
0.000000 0.707107 -0.707107
-0.000000 -0.707107 0.707107
0.707107 0.707107 -0.000000
-0.707107 -0.707107 0.000000
-0.707107 -0.000000 0.707107
0.707107 0.000000 -0.707107
0.000000 -0.707107 -0.707107
-0.707107 0.707107 0.000000
0.707107 0.000000 0.707107
0.707107 0.000000 -0.707107
-0.707107 0.707107 -0.000000
0.707107 -0.707107 0.000000
-0.707107 -0.000000 -0.707107
0.707107 -0.000000 0.707107
0.000000 0.707107 0.707107
-0.000000 -0.707107 -0.707107
-0.000000 -0.000000 1.414214
-0.000000 -0.000000 -1.414214
0.000000 -0.707107 0.707107
-0.000000 0.707107 -0.707107
0.707107 0.707107 0.000000
-0.707107 -0.707107 0.000000
-0.000000 -0.707107 -0.707107
0.000000 0.707107 0.707107
-0.707107 -0.000000 0.707107
0.707107 0.000000 -0.707107
0.707107 -0.707107 -0.000000
-0.707107 0.707107 0.000000
-0.707107 -0.707107 -0.000000
0.707107 0.707107 -0.000000
-0.707107 0.707107 0.000000
0.707107 -0.707107 0.000000
0.000000 0.707107 -0.707107
-0.000000 -0.707107 0.707107
-0.707107 0.000000 0.707107
0.707107 -0.000000 -0.707107
0.707107 -0.000000 -0.707107
0.707107 0.000000 0.707107
-0.707107 -0.000000 -0.707107
0.707107 0.707107 0.000000
-0.707107 -0.707107 -0.000000
0.707107 -0.707107 0.000000
-0.707107 0.707107 -0.000000
0.707107 0.000000 0.707107
-0.707107 -0.000000 -0.707107
-0.707107 -0.707107 0.000000
0.707107 0.707107 0.000000
0.000000 -0.707107 -0.707107
0.000000 0.707107 0.707107
0.000000 -0.707107 -0.707107
-0.000000 0.707107 0.707107
0.707107 0.707107 0.000000
-0.707107 -0.707107 -0.000000
0.707107 0.707107 0.000000
-0.707107 -0.000000 -0.707107
0.707107 0.000000 0.707107
0.707107 -0.707107 -0.000000
-0.707107 0.707107 0.000000
0.000000 -0.707107 0.707107
-0.000000 0.707107 -0.707107
0.707107 -0.000000 0.707107
-0.707107 -0.000000 -0.707107
0.000000 0.707107 -0.707107
-0.000000 -0.707107 0.707107
0.000000 -0.707107 -0.707107
-0.000000 0.707107 0.707107
-0.000000 0.707107 0.707107
-0.707107 -0.707107 -0.000000
0.707107 0.707107 -0.000000
0.707107 0.000000 0.707107
-0.707107 -0.000000 -0.707107
0.707107 0.707107 0.000000
-0.707107 -0.707107 0.000000
0.707107 0.707107 -0.000000
-0.707107 -0.707107 -0.000000
-0.707107 -0.707107 0.000000
0.000000 0.707107 0.707107
0.000000 0.707107 0.707107
-0.000000 -0.707107 -0.707107
1.414214 0.000000 0.000000
-1.414214 -0.000000 -0.000000
-0.707107 -0.000000 0.707107
0.707107 -0.000000 -0.707107
-0.000000 0.707107 0.707107
0.000000 -0.707107 -0.707107
0.707107 -0.707107 -0.000000
-0.707107 0.707107 -0.000000
0.707107 -0.707107 0.000000
-0.707107 0.707107 0.000000
-0.000000 0.707107 -0.707107
0.000000 -0.707107 0.707107
0.000000 -0.707107 -0.707107
-0.000000 0.707107 0.707107
-0.707107 -0.000000 -0.707107
0.707107 0.000000 0.707107
0.000000 0.707107 0.707107
-0.000000 -0.707107 -0.707107
0.707107 0.000000 0.707107
0.707107 0.000000 0.707107
-0.707107 -0.000000 -0.707107
-0.707107 -0.000000 -0.707107
0.707107 -0.707107 0.000000
-0.707107 0.707107 -0.000000
0.707107 -0.707107 -0.000000
-0.707107 0.707107 0.000000
0.000000 0.707107 -0.707107
-0.000000 -0.707107 0.707107
-0.707107 0.707107 -0.000000
0.707107 -0.707107 0.000000
0.707107 0.707107 0.000000
-0.707107 -0.707107 -0.000000
-0.707107 0.707107 0.000000
0.707107 -0.707107 -0.000000
-0.707107 -0.000000 0.707107
0.707107 0.000000 -0.707107
0.707107 -0.707107 0.000000
-0.707107 0.000000 -0.707107
0.000000 0.707107 0.707107
0.000000 -0.707107 -0.707107
-0.707107 0.707107 -0.000000
-0.707107 -0.000000 -0.707107
0.707107 0.000000 0.707107
0.000000 0.707107 -0.707107
-0.707107 -0.707107 0.000000
0.707107 0.000000 0.707107
-0.000000 0.707107 0.707107
0.000000 -0.707107 -0.707107
0.000000 -0.707107 -0.707107
-0.000000 0.707107 0.707107
0.707107 -0.000000 0.707107
-0.707107 0.000000 -0.707107
-0.000000 -0.707107 0.707107
0.000000 0.707107 -0.707107
-0.707107 -0.000000 -0.707107
0.707107 0.000000 0.707107
0.707107 -0.707107 0.000000
-0.707107 0.707107 0.000000
0.707107 0.707107 0.000000
-0.707107 -0.707107 -0.000000
-0.707107 0.000000 0.707107
0.707107 -0.000000 -0.707107
-0.707107 -0.000000 -0.707107
0.707107 -0.000000 0.707107
0.707107 0.000000 -0.707107
-0.707107 -0.000000 0.707107
0.707107 0.000000 0.707107
0.000000 0.707107 -0.707107
-0.707107 -0.707107 0.000000
-0.000000 -0.707107 0.707107
-0.000000 -0.707107 0.707107
0.000000 0.707107 -0.707107
0.707107 -0.707107 -0.000000
-0.707107 0.707107 0.000000
0.707107 -0.707107 -0.000000
-0.707107 0.707107 0.000000
-0.000000 -0.707107 -0.707107
-0.000000 0.707107 0.707107
0.707107 0.707107 0.000000
-0.707107 -0.707107 -0.000000
-0.707107 0.000000 -0.707107
0.707107 0.000000 0.707107
-0.707107 -0.707107 0.000000
0.707107 0.707107 -0.000000
-0.000000 -0.707107 -0.707107
0.000000 0.707107 0.707107
0.707107 0.000000 -0.707107
-0.707107 -0.000000 0.707107
-0.707107 0.000000 0.707107
0.707107 -0.000000 -0.707107
-0.000000 -0.707107 -0.707107
0.000000 -0.707107 0.707107
0.000000 0.707107 0.707107
-0.000000 0.707107 -0.707107
-0.000000 -0.707107 -0.707107
-0.707107 -0.000000 0.707107
0.707107 0.000000 -0.707107
0.707107 -0.707107 -0.000000
-0.707107 0.707107 0.000000
1.414214 -0.000000 -0.000000
-1.414214 0.000000 0.000000
0.707107 -0.000000 -0.707107
-0.707107 0.000000 0.707107
0.000000 -0.707107 0.707107
-0.000000 0.707107 -0.707107
0.000000 -0.707107 -0.707107
-0.000000 0.707107 0.707107
-0.707107 0.000000 0.707107
0.707107 -0.000000 -0.707107
0.707107 -0.707107 0.000000
-0.707107 0.707107 -0.000000
-0.707107 0.707107 -0.000000
0.707107 -0.707107 0.000000
0.707107 -0.707107 -0.000000
0.707107 -0.000000 0.707107
-0.707107 0.000000 -0.707107
0.707107 -0.707107 0.000000
-0.707107 0.707107 -0.000000
0.000000 -0.707107 -0.707107
-0.000000 0.707107 0.707107
0.000000 0.707107 0.707107
0.000000 -0.707107 -0.707107
0.707107 0.000000 -0.707107
-0.707107 -0.000000 0.707107
0.000000 -0.707107 0.707107
-0.000000 0.707107 -0.707107
-0.707107 -0.000000 -0.707107
0.707107 0.000000 0.707107
-0.000000 0.707107 0.707107
0.000000 -0.707107 -0.707107
0.707107 -0.707107 0.000000
-0.707107 0.707107 -0.000000
-0.707107 0.707107 -0.000000
0.707107 -0.707107 0.000000
0.707107 -0.707107 0.000000
-0.707107 0.707107 0.000000
-0.707107 0.000000 0.707107
0.707107 -0.000000 -0.707107
0.707107 -0.707107 -0.000000
-0.707107 0.707107 0.000000
0.000000 -0.707107 -0.707107
-0.000000 0.707107 0.707107
0.000000 -0.707107 -0.707107
-0.000000 0.707107 0.707107
0.707107 -0.000000 0.707107
-0.707107 0.000000 -0.707107
-0.707107 0.000000 -0.707107
0.707107 0.000000 -0.707107
-0.707107 -0.000000 0.707107
-0.707107 -0.000000 -0.707107
0.707107 0.000000 0.707107
-0.000000 -0.707107 -0.707107
0.707107 -0.707107 -0.000000
-0.707107 0.707107 0.000000
0.000000 -0.707107 -0.707107
-0.000000 0.707107 0.707107
-0.707107 -0.000000 -0.707107
0.707107 0.000000 0.707107
-0.000000 -0.707107 -0.707107
-0.000000 0.707107 0.707107
0.707107 -0.707107 0.000000
-0.707107 0.707107 0.000000
-0.000000 -0.707107 0.707107
-0.000000 0.707107 -0.707107
-0.707107 -0.707107 0.000000
0.707107 0.707107 -0.000000
-0.707107 0.707107 -0.000000
0.707107 -0.707107 0.000000
0.707107 -0.707107 -0.000000
-0.707107 0.707107 0.000000
0.707107 -0.707107 0.000000
-0.707107 0.707107 -0.000000
-0.707107 -0.000000 0.707107
0.707107 0.000000 -0.707107
-0.000000 -0.707107 -0.707107
0.000000 0.707107 0.707107
0.000000 -0.707107 0.707107
-0.000000 0.707107 -0.707107
0.707107 -0.707107 -0.000000
-0.707107 0.707107 0.000000
0.000000 0.707107 0.707107
0.000000 -0.707107 -0.707107
-0.707107 0.707107 0.000000
-0.000000 -0.707107 -0.707107
0.707107 0.000000 0.707107
-0.707107 -0.000000 0.707107
0.707107 0.000000 -0.707107
0.707107 0.000000 0.707107
-0.707107 -0.000000 -0.707107
0.000000 -0.707107 -0.707107
-0.000000 0.707107 0.707107
-0.707107 0.000000 -0.707107
0.707107 -0.000000 0.707107
-0.000000 -0.707107 0.707107
0.000000 0.707107 -0.707107
-0.707107 0.000000 0.707107
0.707107 -0.000000 -0.707107
0.000000 0.707107 -0.707107
-0.000000 -0.707107 0.707107
-0.707107 -0.000000 -0.707107
0.707107 -0.000000 0.707107
0.707107 -0.000000 0.707107
0.000000 -0.707107 -0.707107
-0.000000 0.707107 0.707107
0.707107 0.000000 0.707107
-0.707107 -0.000000 -0.707107
0.707107 0.707107 -0.000000
-0.707107 -0.707107 0.000000
0.707107 -0.000000 0.707107
-0.707107 0.000000 -0.707107
0.000000 0.707107 -0.707107
-0.000000 -0.707107 0.707107
0.000000 0.707107 -0.707107
0.000000 -0.707107 0.707107
0.707107 0.000000 -0.707107
-0.707107 -0.000000 0.707107
0.000000 -0.707107 0.707107
-0.707107 -0.000000 -0.707107
0.707107 0.707107 0.000000
0.000000 0.707107 -0.707107
-0.000000 -0.707107 0.707107
-0.000000 0.707107 0.707107
0.000000 -0.707107 -0.707107
0.707107 0.707107 0.000000
0.707107 0.707107 0.000000
-0.707107 0.000000 0.707107
0.000000 -0.707107 -0.707107
-0.000000 0.707107 0.707107
0.000000 -0.707107 -0.707107
-0.000000 0.707107 0.707107
-0.000000 -0.707107 -0.707107
0.000000 0.707107 -0.707107
-0.000000 -0.707107 0.707107
0.000000 0.707107 0.707107
-0.000000 -0.707107 -0.707107
0.000000 0.707107 0.707107
-0.000000 -0.707107 -0.707107
-0.707107 0.000000 -0.707107
0.707107 -0.000000 0.707107
-0.707107 -0.000000 0.707107
0.707107 0.707107 -0.000000
-0.000000 -0.707107 -0.707107
-0.000000 0.707107 0.707107
-0.000000 -0.707107 -0.707107
0.000000 0.707107 0.707107
-0.000000 -0.707107 -0.707107
-0.707107 -0.000000 0.707107
0.707107 0.000000 -0.707107
-0.707107 -0.707107 0.000000
0.707107 0.707107 -0.000000
-0.707107 -0.000000 0.707107
0.707107 0.000000 -0.707107
0.000000 0.707107 -0.707107
-0.000000 -0.707107 0.707107
0.707107 0.707107 0.000000
0.707107 0.707107 0.000000
-0.707107 -0.707107 -0.000000
0.000000 0.707107 -0.707107
-0.000000 -0.707107 0.707107
0.707107 0.707107 -0.000000
-0.707107 -0.707107 -0.000000
-0.707107 -0.000000 0.707107
0.707107 0.000000 -0.707107
0.000000 -0.707107 0.707107
0.000000 0.707107 -0.707107
0.707107 0.707107 0.000000
-0.707107 -0.707107 -0.000000
0.000000 0.707107 0.707107
-0.000000 -0.707107 -0.707107
-0.000000 0.707107 0.707107
-0.000000 0.707107 -0.707107
0.000000 -0.707107 0.707107
0.000000 -0.707107 -0.707107
0.000000 -0.707107 -0.707107
-0.000000 0.707107 0.707107
-0.707107 0.000000 -0.707107
-0.000000 0.707107 -0.707107
-0.000000 -0.707107 0.707107
0.707107 -0.000000 0.707107
0.000000 -0.707107 -0.707107
-0.000000 0.707107 0.707107
0.707107 0.707107 0.000000
-0.707107 -0.000000 0.707107
-0.000000 -0.707107 -0.707107
-0.000000 -0.707107 -0.707107
-0.000000 -0.707107 -0.707107
0.000000 0.707107 0.707107
0.000000 0.707107 -0.707107
0.707107 -0.707107 0.000000
-0.707107 0.000000 0.707107
-0.707107 0.000000 -0.707107
0.707107 -0.000000 0.707107
0.000000 0.707107 0.707107
-0.000000 -0.707107 -0.707107
-0.000000 0.707107 -0.707107
0.000000 -0.707107 0.707107
0.707107 -0.707107 0.000000
-0.707107 0.707107 0.000000
0.707107 0.707107 0.000000
-0.707107 -0.707107 -0.000000
0.707107 0.000000 -0.707107
-0.707107 -0.000000 0.707107
0.707107 -0.707107 -0.000000
0.707107 -0.707107 -0.000000
-0.707107 0.707107 0.000000
0.707107 -0.707107 -0.000000
-0.000000 1.414214 -0.000000
-0.707107 -0.707107 -0.000000
-0.707107 -0.000000 -0.707107
0.707107 0.000000 0.707107
0.707107 0.707107 -0.000000
-0.707107 -0.707107 0.000000
0.000000 -0.707107 0.707107
0.707107 0.707107 0.000000
-0.707107 0.000000 -0.707107
0.707107 0.000000 0.707107
-0.707107 -0.000000 -0.707107
-0.707107 -0.000000 0.707107
0.707107 0.000000 -0.707107
-0.000000 0.707107 0.707107
0.000000 -0.707107 -0.707107
-0.707107 -0.707107 0.000000
-0.707107 0.000000 0.707107
0.707107 -0.000000 -0.707107
-0.707107 -0.000000 -0.707107
0.707107 0.000000 0.707107
-0.707107 0.000000 -0.707107
0.000000 -0.707107 0.707107
0.707107 0.707107 -0.000000
-0.000000 0.707107 -0.707107
0.000000 -0.707107 0.707107
-0.000000 -0.707107 0.707107
0.000000 0.707107 -0.707107
-0.707107 0.707107 0.000000
0.707107 -0.000000 0.707107
0.000000 -0.707107 -0.707107
-0.707107 -0.707107 0.000000
0.707107 0.707107 -0.000000
-0.000000 0.707107 0.707107
0.000000 -0.707107 -0.707107
-0.707107 -0.000000 0.707107
0.707107 0.000000 -0.707107
0.707107 -0.000000 -0.707107
-0.707107 0.000000 0.707107
0.000000 0.707107 -0.707107
-0.000000 -0.707107 0.707107
-0.707107 0.000000 0.707107
0.707107 -0.000000 -0.707107
-0.707107 0.707107 0.000000
0.707107 -0.707107 0.000000
0.707107 0.000000 0.707107
-0.707107 -0.000000 -0.707107
0.000000 0.707107 0.707107
0.707107 0.707107 -0.000000
-0.707107 -0.707107 0.000000
0.000000 -0.707107 0.707107
-0.000000 0.707107 -0.707107
0.707107 0.707107 -0.000000
-0.707107 -0.707107 -0.000000
-0.000000 -0.707107 -0.707107
0.000000 0.707107 0.707107
0.000000 0.707107 0.707107
0.707107 0.707107 -0.000000
-0.707107 -0.707107 0.000000
0.707107 -0.707107 -0.000000
0.707107 -0.707107 -0.000000
-0.000000 0.707107 0.707107
-0.707107 0.000000 -0.707107
-0.000000 0.707107 -0.707107
0.000000 -0.707107 0.707107
0.000000 -0.707107 -0.707107
-0.000000 0.707107 0.707107
-0.707107 0.707107 -0.000000
0.707107 -0.707107 0.000000
-0.707107 0.707107 -0.000000
0.707107 -0.707107 0.000000
-0.707107 0.707107 0.000000
0.707107 -0.707107 -0.000000
0.707107 0.000000 0.707107
-0.707107 0.000000 -0.707107
-0.707107 -0.000000 0.707107
0.707107 0.000000 -0.707107
0.707107 0.000000 -0.707107
-0.707107 -0.000000 0.707107
0.000000 -0.707107 -0.707107
-0.000000 0.707107 0.707107
0.707107 -0.707107 0.000000
-0.000000 0.707107 -0.707107
-0.707107 0.000000 0.707107
0.707107 0.707107 0.000000
-0.707107 -0.707107 -0.000000
-0.000000 -0.707107 0.707107
0.000000 0.707107 -0.707107
-0.707107 0.000000 -0.707107
0.707107 -0.000000 0.707107
0.707107 0.707107 0.000000
-0.707107 -0.707107 -0.000000
0.707107 -0.707107 0.000000
-0.707107 0.707107 -0.000000
-0.707107 0.707107 0.000000
0.707107 -0.707107 -0.000000
-0.000000 -0.707107 0.707107
-0.000000 0.707107 -0.707107
0.707107 0.707107 0.000000
-0.707107 -0.707107 -0.000000
0.707107 -0.707107 -0.000000
-0.707107 0.707107 0.000000
-0.707107 0.707107 0.000000
-0.707107 -0.707107 0.000000
0.707107 0.707107 -0.000000
-0.707107 0.707107 -0.000000
0.707107 -0.707107 0.000000
0.707107 -0.000000 0.707107
-0.707107 0.000000 -0.707107
0.707107 -0.000000 0.707107
-0.707107 0.000000 -0.707107
-0.000000 -0.707107 0.707107
0.000000 0.707107 0.707107
0.000000 -0.707107 -0.707107
0.707107 -0.707107 0.000000
-0.707107 0.707107 -0.000000
0.000000 0.707107 -0.707107
-0.000000 -0.707107 0.707107
-0.707107 0.000000 -0.707107
0.707107 -0.000000 0.707107
0.000000 0.707107 0.707107
-0.000000 -0.707107 -0.707107
-0.000000 0.707107 0.707107
0.000000 -0.707107 -0.707107
-0.000000 -0.707107 0.707107
-0.000000 0.707107 -0.707107
0.000000 -0.707107 -0.707107
0.000000 0.707107 0.707107
0.707107 -0.707107 0.000000
-0.707107 0.707107 -0.000000
0.707107 0.000000 0.707107
0.707107 0.000000 0.707107
-0.707107 -0.000000 -0.707107
0.000000 -0.707107 0.707107
-0.000000 0.707107 -0.707107
-0.707107 0.000000 -0.707107
0.707107 -0.000000 0.707107
-0.000000 -0.707107 0.707107
0.000000 0.707107 -0.707107
-0.000000 0.707107 -0.707107
-0.707107 -0.000000 0.707107
-0.707107 -0.000000 0.707107
0.707107 0.000000 -0.707107
-0.707107 -0.000000 -0.707107
0.707107 0.000000 0.707107
-0.707107 -0.000000 0.707107
0.707107 0.000000 -0.707107
0.707107 0.707107 0.000000
0.707107 0.707107 0.000000
-0.707107 -0.707107 -0.000000
0.707107 -0.000000 0.707107
-0.707107 -0.707107 -0.000000
-0.000000 0.707107 0.707107
0.707107 0.000000 -0.707107
0.707107 0.000000 0.707107
-0.707107 -0.000000 -0.707107
0.000000 0.707107 -0.707107
0.000000 -0.707107 0.707107