# vtk DataFile Version 3.0
Configuration exported from OpenDiS
ASCII
DATASET UNSTRUCTURED_GRID
POINTS 39062 FLOAT
-29412.000000 -29412.000000 -29412.000000
29412.000000 -29412.000000 -29412.000000
-29412.000000 29412.000000 -29412.000000
-29412.000000 -29412.000000 29412.000000
29412.000000 29412.000000 -29412.000000
29412.000000 -29412.000000 29412.000000
-29412.000000 29412.000000 29412.000000
29412.000000 29412.000000 29412.000000
-4741.363682 -1487.878809 15038.225946
-4906.903110 -618.455140 14334.341705
-4741.363682 -1487.878809 15038.225946
-4608.463671 -2217.734780 15635.181906
26012.015625 -17038.111656 7442.921247
26919.982805 -18124.719206 7264.257882
26012.015625 -17038.111656 7442.921247
24698.646297 -16069.457693 7098.205883
20293.657720 9323.892165 25020.829219
20293.657720 8674.016857 24374.839567
20293.657720 9323.892165 25020.829219
20293.657720 9921.626123 25616.072809
275.448868 -11138.721685 -11280.064276
-317.038784 -10568.408201 -11280.064276
275.448868 -11138.721685 -11280.064276
1160.809737 -12043.471077 -11280.064276
15329.320832 -15156.904537 -17374.795418
15827.331251 -16694.451735 -18414.332197
15329.320832 -15156.904537 -17374.795418
14721.725053 -13835.336599 -16660.823259
-1413.427883 -3551.776450 -15684.097981
-2345.853563 -4604.697605 -15684.097981
-1413.427883 -3551.776450 -15684.097981
-93.074466 -2119.413289 -15684.097981
-25188.172584 19169.421567 -27430.657551
-24726.482312 19693.220811 -27430.657551
-25188.172584 19169.421567 -27430.657551
-26075.390845 18200.380344 -27430.657551
22289.600578 24989.417511 28019.307104
21313.285435 25965.732654 28019.307104
22289.600578 24989.417511 28019.307104
23084.143792 24194.874297 28019.307104
9545.077107 7544.875842 -28928.804508
8672.959683 8416.084439 -28928.804508
9545.077107 7544.875842 -28928.804508
10030.840281 7064.965807 -28928.804508
3809.911403 25638.080578 -1009.071285
4139.230251 25638.080578 -1339.091588
3809.911403 25638.080578 -1009.071285
2958.024987 25638.080578 -156.330435
-20680.002199 24333.777816 -11297.158159
-19637.804382 24117.697286 -10471.040871
-20680.002199 24333.777816 -11297.158159
-21912.222463 24736.332423 -12126.823817
12335.204839 12488.506602 12615.667184
11160.236959 11874.325823 12054.880083
12335.204839 12488.506602 12615.667184
13689.271295 13056.653128 13401.587114
-3189.379098 -11585.716539 -24505.210587
-2917.588741 -10878.213422 -23525.917113
-3189.379098 -11585.716539 -24505.210587
-3675.755004 -12277.366735 -25683.236689
-18480.582089 -3259.524579 9318.094070
-18307.196585 -3702.701569 9934.656564
-18480.582089 -3259.524579 9318.094070
-18579.455587 -2644.483345 8604.179338
-17318.628621 -11115.676718 -19786.779340
-18130.668582 -11966.149610 -19786.779340
-17318.628621 -11115.676718 -19786.779340
-16686.481153 -10460.381848 -19786.779340
25672.584036 -3075.012397 -11629.359121
26542.313422 -3885.493128 -11570.110465
25672.584036 -3075.012397 -11629.359121
24556.630494 -2832.019261 -12502.319527
20493.840289 27818.359460 29052.488764
20945.809927 27716.736277 28702.142309
20493.840289 27818.359460 29052.488764
20246.580035 27309.803625 28296.672675
20493.840289 27818.359460 29052.488764
19127.780066 29188.667567 29056.736648
28664.228508 -23556.304101 7189.239542
28282.088444 -22369.071571 6384.155001
28664.228508 -23556.304101 7189.239542
28879.399672 -24739.583425 8157.341391
-1817.971431 -4955.285527 -15266.521269
-1530.070080 -4586.638451 -15347.266993
-1817.971431 -4955.285527 -15266.521269
-2290.868463 -5744.069740 -14950.634088
-25967.827109 -10603.608958 -22719.881567
-25372.204278 -10539.037279 -22059.687056
-25967.827109 -10603.608958 -22719.881567
-25645.538360 -10844.372721 -23282.934080
-25967.827109 -10603.608958 -22719.881567
-25500.327398 -10238.341589 -22822.113909
-27009.974279 27719.804653 21077.489414
-27711.131239 27879.811916 20536.339717
-27009.974279 27719.804653 21077.489414
-26230.228217 27485.057626 21622.488450
-18532.361508 13341.575901 -6721.768575
-18759.595633 13878.540451 -6412.038151
-18532.361508 13341.575901 -6721.768575
-17747.375073 13878.939753 -6474.145992
-18532.361508 13341.575901 -6721.768575
-18613.705212 13341.575901 -6803.112279
17516.752002 9252.204564 15703.085938
16879.778967 9116.863479 14930.771818
17516.752002 9252.204564 15703.085938
17889.482029 9721.176698 14861.383778
17516.752002 9252.204564 15703.085938
18781.971842 7986.984725 15703.085938
-26145.199628 23358.131319 15084.254419
-26788.485675 23638.087491 15447.584295
-26145.199628 23358.131319 15084.254419
-25500.227634 23077.117777 14720.295967
-9372.487457 -2187.329340 20152.300088
-9465.940943 -1863.337190 19734.854452
-9372.487457 -2187.329340 20152.300088
-9451.890647 -1760.624891 20499.601347
-9372.487457 -2187.329340 20152.300088
-9258.126511 -3001.934524 21081.266219
-9372.487457 -2187.329340 20152.300088
-9061.600716 -3037.816490 19612.699679
-5771.162328 15552.200023 -11007.084689
-5339.549848 15678.994697 -10702.266883
-5771.162328 15552.200023 -11007.084689
-6180.317004 15310.641488 -11174.680832
3991.811768 -20458.830566 -2351.366165
4508.975706 -20695.184272 -2070.555934
3991.811768 -20458.830566 -2351.366165
3452.902931 -20119.232820 -2550.677256
-2102.799792 -8895.459153 19955.125612
-3007.713688 -9039.561500 18906.109368
-2102.799792 -8895.459153 19955.125612
-1343.718999 -8653.712787 20955.915242
-20097.593809 -22084.853805 2263.617169
-19811.094519 -22912.030447 1149.941236
-20097.593809 -22084.853805 2263.617169
-20272.753848 -20962.958104 3560.672907
-18329.027458 -15340.224048 -8716.921476
-18401.803732 -14521.399967 -9608.521830
-18329.027458 -15340.224048 -8716.921476
-18310.778370 -16507.463491 -7531.432944
-25731.727630 25941.801510 14061.628380
-25372.204277 25174.839283 13654.189507
-25731.727630 25941.801510 14061.628380
-26338.238038 27000.333188 14513.649650
-16753.238302 -24773.862338 10837.072098
-17060.879720 -24621.388801 11297.187053
-16753.238302 -24773.862338 10837.072098
-16051.338843 -24934.616067 9974.418910
-9107.839342 -7896.813367 -27896.559517
-9080.935579 -8615.255567 -27151.213554
-9107.839342 -7896.813367 -27896.559517
-9028.986199 -6961.144161 -28753.375579
-2245.979859 -23761.702646 -12156.108378
-2390.911739 -23458.936794 -11998.296932
-2245.979859 -23761.702646 -12156.108378
-3277.093212 -23238.545488 -13710.378889
-2245.979859 -23761.702646 -12156.108378
-1583.879249 -23760.297667 -11492.602789
5918.972185 25075.139884 21263.997119
6240.649095 25595.058944 22105.593089
5918.972185 25075.139884 21263.997119
5361.107251 24152.377994 21628.894075
5918.972185 25075.139884 21263.997119
5949.907806 25083.047823 21193.827368
-13280.645264 11197.811237 -22846.621940
-14673.952880 12590.208208 -22846.621940
-13280.645264 11197.811237 -22846.621940
-13303.451428 10131.713909 -21757.718448
-13280.645264 11197.811237 -22846.621940
-12734.730923 10871.163662 -21974.060024
-6421.015783 12241.262803 12637.215120
-6132.277638 11726.275278 11833.489449
-6421.015783 12241.262803 12637.215120
-6938.802170 12722.424846 13636.163549
2053.716427 -4672.530282 20427.419640
2342.760990 -4857.777949 20854.385632
2053.716427 -4672.530282 20427.419640
1355.025306 -4385.806548 19505.106435
-21324.144866 14476.940051 -28265.361364
-21324.086262 15888.448664 -26853.794147
-21324.144866 14476.940051 -28265.361364
-21631.656867 13637.813411 -29412.000005
-21631.656867 13637.813411 29411.999983
-21666.784780 13541.957745 29281.016415
14566.260853 -1316.606306 -10802.666432
14865.248094 -1929.375519 -9890.909979
14566.260853 -1316.606306 -10802.666432
14256.795661 -288.429372 -12140.308562
2287.577193 -18822.577109 4459.758326
2473.110141 -19224.835949 4676.484218
2287.577193 -18822.577109 4459.758326
2093.937029 -18315.435101 4146.256482
-12019.970034 -4280.543004 26466.107025
-11458.859344 -3447.766837 26737.772502
-12019.970034 -4280.543004 26466.107025
-12549.913962 -4750.429809 26526.164149
-27273.889357 -5745.372550 -1309.047053
-27273.889357 -4836.412109 -408.469374
-27273.889357 -5745.372550 -1309.047053
-27273.889357 -6639.911648 -2200.218538
-18923.330339 -27006.137463 25699.792008
-19963.394334 -26127.346911 25538.518565
-18923.330339 -27006.137463 25699.792008
-17943.494396 -28034.206685 25666.045162
-18965.506587 -22111.471983 -9970.481399
-18630.437569 -22111.471983 -10305.546883
-18965.506587 -22111.471983 -9970.481399
-19195.738446 -22111.471983 -9740.231156
1777.444322 28365.429272 13415.269351
666.533415 27429.795347 13239.992370
1777.444322 28365.429272 13415.269351
2437.087008 28870.413250 13569.928060
4857.092687 -25689.775350 14619.965017
4857.092687 -26776.521609 13546.808757
4857.092687 -25689.775350 14619.965017
4857.092687 -25171.046420 15137.863875
-16137.268814 -22589.944672 26353.668425
-16602.305171 -22573.845270 26834.804183
-16137.268814 -22589.944672 26353.668425
-15459.921558 -22612.913157 25653.352684
27214.930024 25148.003168 -12323.229260
28207.602749 24165.587729 -12323.229260
27214.930024 25148.003168 -12323.229260
25984.306561 26367.145696 -12323.229260
12699.322955 11054.214545 14023.422550
12766.343419 10220.787222 13257.015690
12699.322955 11054.214545 14023.422550
12614.522654 11621.219333 14505.627037
9173.911825 -9959.424164 -6630.056765
9560.893803 -10327.805250 -6611.455872
9173.911825 -9959.424164 -6630.056765
8775.410698 -9579.915627 -6649.049355
-28390.498328 27811.651771 -28864.691894
-28675.901130 27550.576257 -28889.019182
-28390.498328 27811.651771 -28864.691894
-28394.025433 28355.432775 -29412.000003
-28394.025433 28355.432775 29411.999985
-28397.871621 28948.407426 28815.179159
-28390.498328 27811.651771 -28864.691894
-28969.104514 27804.067244 -28278.501181
-21713.364667 -139.535292 17711.389056
-22646.001808 377.011198 17295.298405
-21713.364667 -139.535292 17711.389056
-20831.229756 -713.483901 18019.575358
19119.826062 1772.791408 -525.539079
19840.685205 1520.613130 -56.858214
19119.826062 1772.791408 -525.539079
18388.545804 2167.540273 -862.070472
8948.898684 4978.562683 22404.094307
[...]
CELL_DATA 19528
VECTORS Burgers FLOAT
0.000000 0.000000 0.000000
0.707107 -0.707107 -0.000000
-0.707107 0.707107 0.000000
0.707107 0.000000 0.707107
-0.707107 -0.000000 -0.707107
0.000000 -0.707107 0.707107
0.000000 0.707107 -0.707107
-0.707107 -0.707107 -0.000000
0.707107 0.707107 0.000000
0.000000 0.707107 0.707107
-0.000000 -0.707107 -0.707107
0.707107 -0.707107 0.000000
-0.707107 0.707107 -0.000000
0.707107 -0.707107 0.000000
-0.707107 0.707107 0.000000
-0.707107 -0.707107 0.000000
0.707107 0.707107 -0.000000
0.707107 0.707107 0.000000
-0.707107 -0.707107 -0.000000
-0.707107 0.000000 -0.707107
0.707107 0.000000 0.707107
-0.707107 -0.000000 -0.707107
0.707107 0.000000 0.707107
-0.707107 -0.000000 -0.707107
0.707107 0.000000 0.707107
-0.707107 0.000000 -0.707107
0.707107 -0.000000 0.707107
0.707107 0.707107 0.000000
-0.707107 -0.707107 -0.000000
-0.707107 0.707107 -0.000000
0.707107 -0.707107 0.000000
0.000000 0.707107 0.707107
-0.000000 -0.707107 -0.707107
-0.707107 0.707107 0.000000
0.707107 0.000000 0.707107
-0.000000 -0.707107 -0.707107
-0.000000 0.707107 -0.707107
0.000000 -0.707107 0.707107
0.707107 0.000000 0.707107
-0.707107 -0.000000 -0.707107
0.000000 -0.707107 -0.707107
0.707107 0.707107 -0.000000
-0.707107 -0.000000 0.707107
-0.707107 0.000000 -0.707107
0.707107 -0.000000 0.707107
-0.707107 0.000000 -0.707107
0.000000 -0.707107 0.707107
0.707107 0.707107 0.000000
-0.000000 0.707107 0.707107
0.707107 0.000000 -0.707107
-0.707107 -0.707107 0.000000
0.707107 -0.707107 0.000000
-0.707107 0.707107 -0.000000
-0.000000 -0.707107 0.707107
-0.000000 -0.707107 -0.707107
0.000000 0.707107 -0.707107
0.000000 0.707107 0.707107
-0.000000 -0.707107 0.707107
0.000000 0.707107 -0.707107
-0.000000 -0.707107 -0.707107
0.000000 0.707107 0.707107
-0.000000 0.707107 0.707107
0.000000 -0.707107 -0.707107
-0.707107 -0.707107 0.000000
0.707107 0.707107 -0.000000
0.707107 -0.000000 0.707107
-0.707107 -0.000000 -0.707107
0.000000 0.707107 0.707107
-0.000000 -0.707107 -0.707107
-0.707107 0.000000 0.707107
0.707107 -0.000000 -0.707107
-0.000000 0.707107 -0.707107
0.000000 -0.707107 0.707107
0.000000 -0.707107 -0.707107
0.707107 0.000000 0.707107
-0.707107 0.707107 0.000000
0.707107 -0.000000 0.707107
-0.707107 -0.707107 -0.000000
0.000000 0.707107 -0.707107
-0.707107 -0.707107 -0.000000
0.000000 0.707107 -0.707107
0.707107 -0.000000 0.707107
0.000000 0.707107 0.707107
-0.000000 -0.707107 -0.707107
0.707107 0.707107 0.000000
-0.707107 -0.707107 -0.000000
-0.707107 0.000000 -0.707107
0.707107 -0.000000 0.707107
0.707107 -0.000000 0.707107
-0.000000 0.707107 -0.707107
0.000000 -0.707107 0.707107
0.000000 0.707107 -0.707107
-0.000000 -0.707107 0.707107
-0.000000 -0.707107 -0.707107
0.000000 0.707107 0.707107
0.000000 0.707107 -0.707107
-0.000000 -0.707107 0.707107
-0.707107 -0.000000 -0.707107
0.707107 0.000000 0.707107
-0.000000 0.000000 -1.414214
0.000000 -0.000000 1.414214
0.707107 0.707107 0.000000
-0.707107 -0.707107 -0.000000
0.000000 -0.707107 0.707107
-0.000000 0.707107 -0.707107
0.707107 0.707107 0.000000
-0.707107 -0.707107 -0.000000
0.707107 0.707107 0.000000
-0.707107 -0.707107 -0.000000
0.000000 0.707107 0.707107
-0.000000 -0.707107 -0.707107
0.000000 0.707107 0.707107
-0.000000 -0.707107 -0.707107
0.707107 -0.000000 0.707107
-0.707107 -0.707107 0.000000
-0.707107 -0.707107 0.000000
-0.000000 0.707107 -0.707107
-0.707107 -0.000000 -0.707107
0.707107 0.000000 0.707107
-0.707107 -0.000000 -0.707107
0.707107 0.000000 0.707107
-0.000000 0.707107 0.707107
-0.000000 -0.707107 -0.707107
0.000000 0.707107 0.707107
-0.000000 -0.707107 -0.707107
-0.707107 0.707107 0.000000
0.707107 -0.707107 -0.000000
0.000000 0.707107 -0.707107
-0.000000 -0.707107 0.707107
0.000000 0.707107 0.707107
0.000000 0.707107 0.707107
-0.000000 -0.707107 -0.707107
0.707107 -0.000000 -0.707107
-0.707107 0.000000 0.707107
0.000000 -0.707107 0.707107
-0.000000 0.707107 -0.707107
-0.707107 -0.707107 0.000000
0.707107 0.707107 -0.000000
-0.707107 0.000000 -0.707107
-0.000000 0.707107 0.707107
0.707107 -0.707107 0.000000
0.000000 0.707107 0.707107
0.000000 -0.707107 -0.707107
-0.707107 -0.707107 -0.000000
0.707107 0.707107 0.000000
0.707107 -0.707107 -0.000000
-0.707107 0.707107 0.000000
-0.707107 0.000000 -0.707107
0.707107 -0.000000 0.707107
0.000000 0.707107 -0.707107
-0.000000 -0.707107 0.707107
-0.707107 0.000000 0.707107
0.707107 -0.000000 -0.707107
-0.707107 -0.000000 0.707107
0.707107 0.707107 0.000000
0.000000 -0.707107 -0.707107
0.707107 -0.000000 0.707107
-0.707107 -0.000000 -0.707107
0.000000 -0.707107 -0.707107
-0.000000 0.707107 0.707107
0.707107 -0.707107 0.000000
-0.000000 0.707107 -0.707107
-0.707107 -0.000000 0.707107
0.000000 0.707107 -0.707107
-0.000000 -0.707107 0.707107
0.707107 0.000000 0.707107
-0.707107 -0.000000 -0.707107
0.707107 -0.707107 -0.000000
-0.707107 0.707107 0.000000
0.000000 -0.707107 -0.707107
-0.707107 0.707107 0.000000
0.707107 0.000000 0.707107
-0.707107 0.707107 0.000000
0.707107 0.000000 -0.707107
0.000000 -0.707107 0.707107
0.000000 -0.707107 -0.707107
-0.000000 0.707107 0.707107
-0.707107 0.000000 -0.707107
0.707107 -0.707107 0.000000
-0.000000 0.707107 0.707107
-0.000000 -0.707107 0.707107
0.000000 0.707107 -0.707107
-0.707107 -0.000000 -0.707107
0.707107 0.000000 0.707107
0.000000 0.707107 0.707107
-0.000000 -0.707107 -0.707107
0.000000 0.707107 0.707107
-0.000000 -0.707107 -0.707107
0.707107 0.000000 0.707107
-0.707107 -0.000000 -0.707107
-0.707107 -0.000000 0.707107
0.707107 0.000000 -0.707107
0.707107 -0.707107 -0.000000
-0.707107 0.707107 0.000000
-0.000000 -0.707107 -0.707107
0.000000 0.707107 0.707107
-0.707107 0.707107 0.000000
0.707107 -0.707107 -0.000000
0.000000 0.707107 -0.707107
-0.000000 -0.707107 0.707107
-0.000000 0.707107 0.707107
0.707107 0.000000 -0.707107
-0.707107 -0.707107 0.000000
0.000000 0.707107 -0.707107
-0.000000 -0.707107 0.707107
-0.000000 -0.707107 -0.707107
0.000000 0.707107 0.707107
0.707107 -0.000000 -0.707107
0.707107 -0.000000 -0.707107
-0.707107 0.000000 0.707107
-0.707107 0.000000 0.707107
0.707107 -0.000000 -0.707107
-0.707107 -0.000000 -0.707107
0.707107 0.000000 0.707107
0.707107 -0.707107 0.000000
-0.707107 -0.000000 -0.707107
0.000000 0.707107 0.707107
-0.000000 -0.707107 -0.707107
0.000000 0.707107 0.707107
0.707107 0.000000 -0.707107
-0.707107 -0.000000 0.707107
-0.707107 -0.707107 -0.000000
0.707107 0.707107 0.000000
-0.707107 -0.000000 -0.707107
0.707107 0.000000 0.707107
-0.707107 0.000000 -0.707107
0.707107 -0.000000 0.707107
-0.707107 0.707107 -0.000000
0.707107 -0.707107 0.000000
0.707107 -0.000000 -0.707107
0.707107 -0.000000 -0.707107
-0.707107 0.000000 -0.707107
0.707107 -0.000000 0.707107
0.707107 -0.707107 -0.000000
-0.707107 0.707107 0.000000
0.707107 -0.000000 0.707107
-0.707107 0.000000 -0.707107
0.707107 -0.707107 0.000000
-0.707107 0.707107 -0.000000
0.707107 0.000000 0.707107
-0.707107 -0.000000 -0.707107
-0.000000 0.707107 -0.707107
0.000000 -0.707107 0.707107
-0.707107 -0.707107 0.000000
0.000000 0.707107 0.707107
0.707107 0.000000 -0.707107
0.000000 -0.707107 -0.707107
0.000000 -0.707107 -0.707107
-0.000000 0.707107 0.707107
-0.000000 -0.707107 0.707107
-0.000000 -0.000000 -1.414214
0.000000 0.707107 0.707107
-0.707107 -0.000000 0.707107
0.707107 -0.000000 -0.707107
0.707107 -0.000000 -0.707107
-0.707107 0.000000 0.707107
-0.000000 -0.707107 0.707107
0.000000 0.707107 -0.707107
-0.000000 -0.707107 -0.707107
0.707107 0.707107 -0.000000
-0.707107 0.000000 0.707107
-0.707107 -0.707107 0.000000
0.707107 0.707107 -0.000000
-0.707107 0.000000 0.707107
0.707107 -0.000000 -0.707107
0.000000 0.707107 0.707107
-0.000000 -0.707107 -0.707107
0.707107 -0.707107 -0.000000
-0.707107 0.707107 0.000000
0.000000 0.707107 0.707107
-0.000000 -0.707107 -0.707107
0.707107 0.000000 0.707107
-0.707107 0.000000 -0.707107
0.707107 0.707107 -0.000000
-0.707107 -0.707107 0.000000
0.000000 -0.707107 0.707107
-0.000000 0.707107 -0.707107
0.707107 0.707107 -0.000000
-0.707107 0.000000 -0.707107
-0.000000 -0.707107 0.707107
0.000000 -0.707107 0.707107
-0.707107 0.707107 0.000000
0.707107 -0.000000 -0.707107
0.707107 -0.707107 -0.000000
-0.707107 0.707107 -0.000000
0.707107 0.000000 -0.707107
-0.707107 -0.000000 0.707107
-0.707107 -0.707107 0.000000
0.707107 0.707107 -0.000000
0.000000 0.707107 0.707107
0.707107 -0.000000 -0.707107
-0.707107 -0.707107 0.000000
0.000000 0.707107 0.707107
-0.000000 -0.707107 -0.707107
-0.707107 0.000000 0.707107
0.707107 -0.000000 -0.707107
-0.000000 -0.707107 0.707107
0.707107 0.000000 -0.707107
-0.707107 0.707107 -0.000000
-0.000000 0.707107 -0.707107
0.000000 -0.707107 0.707107
-0.000000 -0.707107 0.707107
0.000000 0.707107 -0.707107
0.707107 0.707107 0.000000
-0.707107 -0.707107 -0.000000
0.707107 -0.707107 0.000000
-0.707107 0.707107 0.000000
0.707107 0.707107 0.000000
-0.707107 -0.707107 -0.000000
-0.707107 0.000000 -0.707107
0.707107 -0.000000 0.707107
0.707107 0.707107 0.000000
-0.707107 -0.707107 -0.000000
0.707107 -0.000000 0.707107
-0.707107 0.000000 -0.707107
0.707107 0.000000 0.707107
-0.707107 -0.000000 -0.707107
-0.707107 -0.000000 -0.707107
0.707107 0.000000 0.707107
0.707107 0.000000 -0.707107
0.000000 -0.707107 -0.707107
-1.414214 0.707107 0.707107
0.707107 -0.000000 0.707107
-0.707107 0.000000 0.707107
0.707107 -0.000000 -0.707107
0.000000 -0.707107 0.707107
-0.000000 0.707107 -0.707107
-0.707107 0.707107 0.000000
-0.000000 -0.707107 -0.707107
0.707107 -0.000000 0.707107
-0.707107 0.000000 -0.707107
0.707107 -0.000000 0.707107
-0.707107 -0.707107 0.000000
0.707107 0.707107 -0.000000
-0.707107 0.000000 0.707107
0.707107 -0.000000 -0.707107
-0.707107 -0.000000 -0.707107
0.707107 0.000000 0.707107
0.707107 0.000000 0.707107
0.707107 -0.000000 -0.707107
-0.707107 0.000000 0.707107
0.000000 0.707107 -0.707107
-0.000000 -0.707107 0.707107
-0.707107 0.707107 0.000000
-0.000000 -0.707107 -0.707107
0.707107 -0.000000 0.707107
0.707107 0.000000 0.707107
-0.707107 -0.000000 -0.707107
-0.707107 0.707107 -0.000000
0.707107 -0.707107 0.000000
-0.707107 0.707107 0.000000
0.707107 -0.707107 -0.000000
0.000000 0.707107 0.707107
0.000000 0.707107 0.707107
-0.707107 -0.707107 -0.000000
0.707107 -0.000000 -0.707107
-0.707107 -0.707107 -0.000000
0.707107 0.707107 0.000000
-0.707107 -0.000000 0.707107
-0.707107 1.414214 -0.707107
1.414214 -0.707107 0.707107
0.000000 -0.707107 -0.707107
0.707107 0.000000 -0.707107
-0.707107 -0.000000 0.707107
-0.707107 0.707107 -0.000000
0.707107 -0.707107 0.000000
-0.707107 0.000000 0.707107
-0.707107 0.000000 0.707107
0.707107 -0.000000 -0.707107
0.707107 -0.000000 -0.707107
-0.707107 -0.707107 -0.000000
0.707107 0.707107 0.000000
0.000000 -0.707107 0.707107
-0.000000 0.707107 -0.707107
0.707107 0.707107 -0.000000
-0.707107 -0.707107 0.000000
-0.707107 0.000000 0.707107
0.707107 -0.000000 -0.707107
-0.000000 -0.707107 -0.707107
0.000000 0.707107 0.707107
-0.707107 -0.707107 -0.000000
0.707107 0.707107 0.000000
-0.707107 -0.000000 -0.707107
0.707107 0.000000 0.707107
0.000000 0.707107 0.707107
-0.000000 -0.707107 -0.707107
-0.707107 0.000000 0.707107
0.707107 -0.000000 -0.707107
0.000000 -0.707107 0.707107
-0.000000 0.707107 -0.707107
0.707107 -0.707107 0.000000
-0.707107 0.707107 0.000000
0.707107 -0.000000 0.707107
-0.707107 0.000000 -0.707107
-0.707107 0.000000 -0.707107
0.707107 -0.000000 0.707107
0.707107 0.000000 0.707107
-0.707107 -0.707107 0.000000
-0.000000 0.707107 -0.707107
0.000000 0.707107 0.707107
-0.000000 -0.707107 -0.707107
-0.707107 0.707107 0.000000
0.707107 -0.707107 -0.000000
-0.707107 0.707107 0.000000
0.707107 -0.000000 0.707107
-0.000000 -0.707107 -0.707107
-0.707107 0.000000 -0.707107
0.707107 -0.000000 0.707107
0.000000 0.707107 0.707107
-0.000000 -0.707107 -0.707107
0.707107 -0.707107 -0.000000
-0.707107 0.707107 0.000000
-0.707107 0.707107 0.000000
0.707107 -0.707107 -0.000000
-0.000000 -0.707107 -0.707107
-0.000000 0.707107 0.707107
-0.707107 0.000000 0.707107
0.707107 -0.000000 -0.707107
0.707107 0.000000 0.707107
-0.707107 -0.000000 -0.707107
-0.707107 0.000000 -0.707107
0.000000 -0.707107 0.707107
0.707107 0.707107 -0.000000
-0.707107 0.707107 -0.000000
0.707107 -0.707107 0.000000
0.707107 -0.707107 -0.000000
-0.707107 0.707107 0.000000
0.707107 -0.707107 0.000000
-0.707107 0.707107 -0.000000
0.707107 0.707107 -0.000000
-0.707107 -0.707107 0.000000
0.000000 -0.707107 -0.707107
0.000000 -0.707107 -0.707107
-0.000000 0.707107 0.707107
-0.000000 -0.707107 -0.707107
0.000000 0.707107 0.707107
0.000000 -0.707107 -0.707107
-0.707107 0.000000 0.707107
0.707107 -0.000000 -0.707107
-0.000000 0.707107 0.707107
0.000000 -0.707107 -0.707107
-0.000000 0.707107 0.707107
0.000000 -0.707107 -0.707107
0.000000 0.707107 0.707107
-0.000000 -0.707107 -0.707107
0.707107 0.000000 0.707107
-0.707107 -0.000000 -0.707107
-0.707107 0.000000 0.707107
0.707107 -0.000000 -0.707107
0.707107 -0.000000 0.707107
-0.707107 0.000000 -0.707107
0.000000 -0.707107 -0.707107
-0.000000 0.707107 0.707107
0.000000 0.707107 -0.707107
-0.000000 -0.707107 0.707107
0.000000 0.707107 0.707107
-0.000000 -0.707107 -0.707107
-0.000000 -0.707107 -0.707107
0.707107 0.000000 0.707107
-0.707107 0.707107 0.000000
-0.707107 0.000000 -0.707107
0.707107 -0.000000 0.707107
0.707107 -0.707107 0.000000
-0.707107 0.707107 -0.000000
0.000000 0.707107 0.707107
-0.000000 -0.707107 -0.707107
-0.707107 0.000000 -0.707107
0.707107 -0.000000 -0.707107
0.000000 0.000000 1.414214
0.707107 0.000000 0.707107
-0.707107 -0.000000 -0.707107
-0.000000 -0.707107 -0.707107
0.000000 -0.707107 0.707107
-0.707107 -0.000000 -0.707107
0.707107 0.707107 0.000000
-0.707107 0.000000 0.707107
0.707107 -0.000000 -0.707107
0.000000 0.707107 0.707107
-0.000000 -0.707107 -0.707107
0.707107 -0.707107 0.000000
-0.707107 0.707107 -0.000000
-0.707107 -0.000000 0.707107
0.000000 0.707107 -0.707107
0.707107 -0.707107 0.000000
-0.000000 -0.707107 -0.707107
0.000000 0.707107 0.707107
0.707107 -0.707107 -0.000000
-0.707107 0.000000 0.707107
-0.000000 0.707107 -0.707107
-0.707107 -0.707107 0.000000
0.000000 0.707107 -0.707107
0.707107 0.000000 0.707107
-0.000000 -0.707107 -0.707107
0.000000 0.707107 0.707107
0.707107 -0.707107 0.000000
-0.707107 0.707107 -0.000000
-0.707107 -0.707107 -0.000000
0.707107 0.707107 -0.000000
-0.000000 -0.707107 -0.707107
0.707107 -0.000000 -0.707107
-0.707107 0.000000 0.707107
0.000000 0.707107 0.707107
-0.707107 0.000000 -0.707107
0.707107 -0.000000 0.707107
-0.707107 0.000000 -0.707107
-0.707107 0.707107 -0.000000
1.414214 -0.707107 0.707107
0.707107 -0.000000 -0.707107
-0.707107 -0.707107 0.000000
-0.000000 0.707107 0.707107
-0.707107 0.000000 0.707107
0.707107 -0.000000 -0.707107
0.707107 0.707107 -0.000000
-0.707107 -0.707107 0.000000
-0.707107 0.707107 -0.000000
0.000000 -0.707107 -0.707107
0.707107 0.000000 0.707107
-0.707107 0.707107 0.000000
0.707107 -0.707107 -0.000000
0.707107 -0.707107 0.000000
-0.707107 0.707107 -0.000000
-0.707107 0.000000 0.707107
0.707107 -0.000000 -0.707107
-0.000000 0.707107 0.707107
0.000000 -0.707107 -0.707107
0.000000 0.707107 -0.707107
-0.000000 -0.707107 0.707107
-0.707107 0.707107 0.000000
0.707107 -0.707107 -0.000000
-0.000000 -0.707107 0.707107
0.000000 0.707107 -0.707107
-0.000000 -0.707107 -0.707107
0.000000 0.707107 0.707107
-0.000000 -0.707107 -0.707107
0.000000 0.707107 0.707107
0.000000 -0.707107 -0.707107
-0.000000 0.707107 0.707107
0.707107 0.000000 -0.707107
-0.707107 -0.000000 0.707107
-0.000000 0.707107 0.707107
0.000000 -0.707107 -0.707107
-0.707107 -0.000000 -0.707107
0.707107 0.000000 0.707107
0.707107 0.000000 0.707107
0.000000 0.707107 -0.707107
-0.000000 -0.707107 0.707107
0.707107 -0.000000 -0.707107
-0.707107 0.000000 0.707107
-0.707107 0.000000 0.707107
-0.707107 0.000000 -0.707107
0.707107 -0.000000 0.707107
0.000000 -0.707107 -0.707107
-0.000000 0.707107 0.707107
-0.707107 0.000000 0.707107
0.707107 -0.000000 -0.707107
0.707107 -0.000000 -0.707107
-0.707107 0.000000 0.707107
-0.707107 0.000000 0.707107
0.707107 -0.707107 0.000000
-0.707107 0.707107 -0.000000
0.707107 -0.707107 -0.000000
-0.707107 0.707107 0.000000
0.707107 -0.000000 -0.707107
-0.707107 0.000000 0.707107
0.707107 -0.707107 -0.000000
-0.707107 0.707107 0.000000
0.707107 0.000000 0.707107
-0.707107 -0.000000 -0.707107
-0.707107 0.000000 -0.707107
0.707107 0.707107 0.000000
0.000000 -0.707107 0.707107
0.707107 0.000000 0.707107
-0.707107 -0.000000 -0.707107
0.707107 -0.000000 -0.707107
-0.707107 0.707107 0.000000
-0.000000 -0.707107 0.707107
-0.707107 -0.000000 -0.707107
0.707107 0.000000 0.707107
-0.707107 -0.707107 0.000000
0.707107 -0.000000 0.707107
-0.707107 0.000000 -0.707107
-0.000000 0.707107 0.707107
0.000000 -0.707107 -0.707107
-0.707107 -0.000000 0.707107
0.707107 0.000000 -0.707107
0.707107 -0.707107 0.000000
-0.707107 0.707107 -0.000000
-0.000000 -0.707107 0.707107
0.000000 0.707107 -0.707107
0.000000 -0.707107 -0.707107
-0.000000 0.707107 0.707107
-0.707107 0.707107 0.000000
-0.707107 -0.707107 -0.000000
0.707107 0.707107 0.000000
0.000000 -0.707107 -0.707107
-0.707107 0.707107 0.000000
0.707107 0.000000 0.707107
0.707107 0.707107 0.000000
-0.707107 -0.707107 0.000000
0.707107 0.000000 0.707107
-0.707107 -0.000000 -0.707107
-0.000000 -0.707107 0.707107
0.000000 0.707107 -0.707107
0.000000 0.707107 -0.707107
-0.000000 -0.707107 0.707107
-0.000000 -0.707107 -0.707107
0.000000 0.707107 0.707107
0.000000 -0.707107 0.707107
-0.000000 0.707107 -0.707107
0.000000 -0.707107 0.707107
-0.000000 0.707107 -0.707107
0.707107 0.000000 0.707107
-0.707107 -0.000000 -0.707107
-0.707107 -0.000000 -0.707107
0.707107 0.000000 0.707107
-0.707107 -0.000000 0.707107
0.707107 0.000000 -0.707107
0.707107 0.707107 -0.000000
-0.707107 -0.707107 0.000000
0.000000 0.707107 -0.707107
-0.707107 0.000000 0.707107
0.707107 -0.707107 -0.000000
-0.707107 0.707107 0.000000
0.707107 -0.707107 -0.000000
0.707107 -0.000000 -0.707107
-0.000000 -0.707107 -0.707107
0.000000 0.707107 0.707107
-0.707107 0.707107 -0.000000
0.707107 -0.707107 0.000000
-0.707107 0.000000 0.707107
0.707107 -0.000000 -0.707107
-0.707107 0.000000 -0.707107
0.707107 -0.000000 0.707107
0.707107 -0.000000 0.707107
-0.707107 0.000000 -0.707107
0.000000 -0.707107 -0.707107
-0.000000 0.707107 0.707107
-0.707107 0.000000 0.707107
0.707107 -0.000000 -0.707107
0.000000 0.707107 0.707107
-0.000000 -0.707107 -0.707107
0.000000 -0.707107 -0.707107
-0.000000 0.707107 0.707107
-0.707107 -0.000000 0.707107
0.707107 0.000000 -0.707107
-0.707107 -0.707107 -0.000000
0.707107 0.707107 0.000000
0.707107 0.000000 -0.707107
-0.707107 -0.000000 0.707107
0.000000 0.707107 0.707107
-0.000000 -0.707107 -0.707107
0.000000 -0.707107 0.707107
-0.000000 0.707107 -0.707107
0.000000 0.707107 0.707107
-0.000000 -0.707107 -0.707107
-0.000000 1.414214 -0.000000
-0.000000 -0.707107 0.707107
0.000000 -0.707107 -0.707107
0.000000 -0.707107 -0.707107
-0.000000 0.707107 0.707107
-0.707107 -0.707107 0.000000
0.707107 0.707107 -0.000000
-0.000000 0.707107 0.707107
0.000000 -0.707107 -0.707107
0.707107 -0.707107 0.000000
-0.707107 0.707107 -0.000000
-0.707107 0.707107 0.000000
0.707107 -0.707107 -0.000000
-0.707107 -0.000000 -0.707107
0.707107 0.000000 0.707107
-0.707107 -0.707107 0.000000
0.707107 0.707107 -0.000000
-0.707107 0.000000 -0.707107
0.707107 -0.000000 0.707107
-0.000000 0.707107 -0.707107
0.000000 -0.707107 0.707107
0.000000 -0.707107 0.707107
0.000000 0.707107 0.707107
-0.000000 -0.707107 -0.707107
-0.707107 0.000000 0.707107
0.707107 -0.000000 -0.707107
0.707107 -0.000000 -0.707107
-0.707107 0.000000 0.707107
0.000000 -0.707107 -0.707107
0.000000 0.707107 0.707107
0.707107 0.000000 0.707107
-0.707107 -0.000000 -0.707107
-0.707107 -0.000000 -0.707107
0.707107 0.000000 0.707107
-0.707107 0.707107 -0.000000
-0.707107 0.000000 -0.707107
0.707107 -0.000000 0.707107
0.707107 -0.707107 0.000000
-0.707107 0.707107 -0.000000
0.707107 0.707107 0.000000
-0.000000 -0.707107 -0.707107
0.000000 0.707107 0.707107
-0.000000 -0.707107 0.707107
0.000000 0.707107 -0.707107
-0.707107 0.707107 -0.000000
0.707107 -0.707107 0.000000