# vtk DataFile Version 3.0
Configuration exported from OpenDiS
ASCII
DATASET UNSTRUCTURED_GRID
POINTS 43446 FLOAT
-29412.000000 -29412.000000 -29412.000000
29412.000000 -29412.000000 -29412.000000
-29412.000000 29412.000000 -29412.000000
-29412.000000 -29412.000000 29412.000000
29412.000000 29412.000000 -29412.000000
29412.000000 -29412.000000 29412.000000
-29412.000000 29412.000000 29412.000000
29412.000000 29412.000000 29412.000000
-2908.171737 -20929.414619 10033.681684
-2908.171737 -21782.766602 9180.329701
-2908.171737 -20929.414619 10033.681684
-2908.171737 -20099.323293 10863.773010
-10349.076442 17596.147994 15081.826350
-9053.614273 18225.120723 14415.336909
-10349.076442 17596.147994 15081.826350
-11029.171104 17264.622357 15430.395374
20293.657720 9331.976259 25028.868805
20293.657720 8616.480652 24316.911787
20293.657720 9331.976259 25028.868805
20293.657720 9912.830113 25607.304117
-17250.405581 -18475.913697 -11129.249941
-16966.802852 -17631.551699 -10001.285228
-17250.405581 -18475.913697 -11129.249941
-17772.327459 -19162.814973 -12338.073095
-19958.431260 23483.138482 -17893.447964
-18990.848408 23052.068216 -17356.935719
-19958.431260 23483.138482 -17893.447964
-20921.401903 23763.699099 -18575.853704
29282.340649 -21933.511072 17544.020556
28100.413547 -21933.511073 16362.093454
29282.340649 -21933.511072 17544.020556
29411.999999 -21933.511072 17673.679906
-29411.999989 -21933.511072 17673.679906
-28843.371186 -21933.511072 18242.308721
-24554.907314 11216.880601 22093.598625
-24554.907314 11990.756747 22822.466145
-24554.907314 11216.880601 22093.598625
-24554.907314 10567.632465 21462.728113
22289.600578 24989.417511 28019.307104
21690.937114 25588.080975 28019.307104
22289.600578 24989.417511 28019.307104
23239.123549 24039.894540 28019.307104
9460.014521 7629.966542 -28928.804508
8761.799490 8329.501865 -28928.804508
9460.014521 7629.966542 -28928.804508
10033.457318 7062.331423 -28928.804508
3834.185529 25638.080578 -1033.400979
4130.303788 25638.080578 -1330.221035
3834.185529 25638.080578 -1033.400979
3512.560636 25638.080578 -711.438296
3784.650271 3005.855776 -28954.372712
4410.490890 2140.494847 -28714.852402
3784.650271 3005.855776 -28954.372712
3066.990378 3921.499081 -29152.356124
12045.598215 15095.655977 9718.911186
11943.189978 14353.736102 10358.422824
12045.598215 15095.655977 9718.911186
12319.451946 16014.339966 9074.080927
-15127.888464 27503.628134 2645.624720
-14540.372305 26651.885894 2381.398639
-15127.888464 27503.628134 2645.624720
-15934.301192 28681.363701 3016.947559
10409.125283 -8122.265790 -12955.150722
10615.674267 -8854.826338 -12016.041191
10409.125283 -8122.265790 -12955.150722
10088.015602 -7305.667877 -14092.858316
-24815.332284 25362.683829 10742.542524
-25080.747422 25785.471118 10899.914674
-24815.332284 25362.683829 10742.542524
-23992.898809 24610.533637 10812.825808
-26413.325583 -21549.295390 5430.895443
-26413.325583 -21458.270127 5361.221186
-26413.325583 -21549.295390 5430.895443
-26849.159979 -21924.307170 6241.741620
-26413.325583 -21549.295390 5430.895443
-25684.016420 -22243.550893 4007.330777
20534.625472 27777.574277 29052.488764
20945.809927 27716.736277 28702.142309
20534.625472 27777.574277 29052.488764
20276.935405 27234.027551 28251.251970
20534.625472 27777.574277 29052.488764
19899.057815 28635.583928 29274.930757
13386.382430 15684.240608 -631.658799
13386.382430 16389.728146 -1337.146337
13386.382430 15684.240608 -631.658799
13387.302255 14768.407412 285.094222
18483.282380 9006.153094 16423.565313
18974.311900 9036.273452 16944.716704
18483.282380 9006.153094 16423.565313
18045.475213 9027.722055 16007.326639
6074.365843 -15647.904241 26822.776085
7182.896667 -16204.783280 26271.124299
6074.365843 -15647.904241 26822.776085
5134.137033 -14923.572063 27038.672717
-26833.099805 27897.154021 21431.713257
-27658.973571 27980.306882 20688.992352
-26833.099805 27897.154021 21431.713257
-26040.344909 27744.167284 22071.481415
15489.437543 -14269.077558 15071.914485
16337.871095 -13763.591754 13717.995130
15489.437543 -14269.077558 15071.914485
16065.083863 -14844.723878 15071.914485
15489.437543 -14269.077558 15071.914485
15185.512839 -14129.558608 14907.508731
-18512.954973 19725.277651 -16336.906244
-18512.955258 19265.715933 -16795.703572
-18512.954973 19725.277651 -16336.906244
-18512.956785 21180.661966 -14981.983525
-26116.198343 23048.621577 15364.762875
-26774.549269 23390.116983 15681.618395
-26116.198343 23048.621577 15364.762875
-25474.539340 22695.919962 15075.805488
-19812.084296 11655.731504 4648.907019
-20715.490337 11526.655121 3616.424594
-19812.084296 11655.731504 4648.907019
-19535.039255 11637.263426 4907.483981
11495.392273 15904.254777 13527.767214
12185.002853 16124.636901 12617.774510
11495.392273 15904.254777 13527.767214
10795.824487 15600.671251 14530.918526
3117.822854 -7223.641888 13211.933378
1954.381996 -8387.082746 13211.933378
3117.822854 -7223.641888 13211.933378
2560.140730 -6632.655712 14360.601678
3117.822854 -7223.641888 13211.933378
3820.069074 -6318.871540 13009.409251
-8793.490692 -4790.245106 -27983.122500
-9834.787725 -4788.854006 -26943.216567
-8793.490692 -4790.245106 -27983.122500
-7781.282153 -4950.249510 -28835.326635
2260.833473 4801.289355 -29225.989494
3598.061417 4801.289356 -27888.761550
2260.833473 4801.289355 -29225.989494
3066.990378 3921.499081 -29152.356124
24473.052182 -14044.039732 7443.509999
24847.141511 -14598.442130 6515.016790
24473.052182 -14044.039732 7443.509999
24702.968432 -13623.976966 7633.656514
24473.052182 -14044.039732 7443.509999
23178.431797 -14834.163721 7948.006395
1729.322776 29351.467164 -29274.193029
1660.799034 29412.000000 -29282.183935
1660.799034 -29411.999989 -29282.183935
731.501944 -28591.073023 -29390.554048
1729.322776 29351.467164 -29274.193029
2387.324673 28555.658292 -29412.000004
2387.324673 28555.658292 29411.999984
2616.182711 28278.869945 29364.069687
-16568.077553 -24709.701322 10716.072365
-17060.879720 -24621.388801 11297.187053
-16568.077553 -24709.701322 10716.072365
-15891.632762 -24718.423758 10030.905138
-1916.388422 13905.638147 -22237.681035
-2299.051073 14009.604197 -22036.773335
-1916.388422 13905.638147 -22237.681035
-704.304644 12508.167978 -22423.067425
-3768.588212 -23761.702646 -13678.716731
-3974.670968 -23458.936794 -13582.115772
-3768.588212 -23761.702646 -13678.716731
-2455.166973 -23816.866472 -12420.459317
-3768.588212 -23761.702646 -13678.716731
-4062.354947 -23238.545488 -14495.640625
28523.638289 11813.089080 3154.646246
29121.883957 11568.893144 3997.087850
28523.638289 11813.089080 3154.646246
27990.941861 12165.342479 2269.696419
-13280.645264 11197.811237 -22846.621940
-14671.852483 12588.109185 -22846.621940
-13280.645264 11197.811237 -22846.621940
-12524.958836 10167.797301 -22572.294432
-13280.645264 11197.811237 -22846.621940
-13372.400051 10871.144025 -22611.709515
-4111.812432 10769.216619 8855.965584
-5391.907977 10844.161840 10211.006350
-4111.812432 10769.216619 8855.965584
-2814.400790 11393.714218 8183.051541
9664.097783 -6218.390900 -3034.911093
9685.778531 -6937.400247 -3775.599504
9664.097783 -6218.390900 -3034.911093
9558.217349 -5545.729328 -2256.369928
14191.373454 3916.050177 17208.836820
13357.543299 3664.300625 16625.582036
14191.373454 3916.050177 17208.836820
15059.851167 4232.443952 17761.312150
27960.416049 782.229376 -2370.611489
28406.057014 1122.678632 -1584.521268
27960.416049 782.229376 -2370.611489
26940.388772 290.759056 -3882.109086
-14518.256944 15543.937662 -13236.111622
-13909.636926 15199.562040 -12283.115981
-14518.256944 15543.937662 -13236.111622
-14886.978861 15940.454274 -14001.350152
-11715.786777 -4028.055416 26414.411357
-11249.780628 -3208.506407 26767.954217
-11715.786777 -4028.055416 26414.411357
-12424.122650 -4716.386673 26434.415972
-26098.657334 -23871.938836 2793.583748
-25924.528483 -23065.682427 3425.711306
-26098.657334 -23871.938836 2793.583748
-26171.160981 -24272.360526 2465.665706
22359.608364 21423.151036 430.381618
21608.534683 22161.614377 430.381618
22359.608364 21423.151036 430.381618
22928.743390 20849.460408 430.381618
15607.748197 2487.680478 16536.001629
15505.037265 2221.948370 16167.558588
15607.748197 2487.680478 16536.001629
15967.078576 3142.701615 17550.353144
18772.604855 -25206.661555 1981.342448
19498.679351 -24478.806839 1981.342448
18772.604855 -25206.661555 1981.342448
18026.393402 -25952.854891 1981.342448
4857.092687 -25482.817785 14824.007767
4857.092687 -26176.337139 14131.622889
4857.092687 -25482.817785 14824.007767
4857.092687 -25151.278199 15157.765576
10189.196610 18092.407525 26779.270695
9636.493781 18480.087947 27719.653946
10189.196610 18092.407525 26779.270695
9668.393311 18106.732289 26244.142631
10189.196610 18092.407525 26779.270695
10807.435854 18072.488603 26141.112528
10189.196610 18092.407525 26779.270695
11063.996222 17819.689671 27926.788161
8789.376653 26263.864880 11954.176124
9151.027298 25891.070994 11943.032884
8789.376653 26263.864880 11954.176124
8246.863810 27618.765903 12766.564305
12301.266153 -4492.123206 1964.598521
11576.866554 -4836.724256 895.597872
12301.266153 -4492.123206 1964.598521
12915.872440 -4112.498012 2958.830002
748.235844 -13503.298390 28228.438347
137.647725 -13104.959462 28016.189156
748.235844 -13503.298390 28228.438347
1806.373601 -13672.714807 29117.159687
26152.008574 -1012.779941 3664.904145
26281.771216 -579.712400 4227.734329
26152.008574 -1012.779941 3664.904145
26052.663953 -1420.447139 3157.892327
-22135.149768 312.540378 17741.679624
-22646.001808 377.011198 17295.298405
-22135.149768 312.540378 17741.679624
-21375.667659 98.377195 18286.998584
-26694.913951 -22885.944993 24548.869241
-27744.604833 -23935.635874 24548.869241
-26694.913951 -22885.944993 24548.869241
-26020.162918 -22134.631239 24548.869241
28671.918511 -25897.649283 -16485.441757
28886.285331 -26389.919833 -16763.345487
28671.918511 -25897.649283 -16485.441757
[...]
CELL_DATA 21720
VECTORS Burgers FLOAT
0.000000 0.000000 0.000000
0.000000 0.707107 -0.707107
-0.000000 -0.707107 0.707107
-0.707107 -0.000000 0.707107
0.707107 0.000000 -0.707107
0.000000 -0.707107 0.707107
0.000000 0.707107 -0.707107
-0.707107 0.000000 -0.707107
0.707107 -0.000000 0.707107
0.707107 0.000000 0.707107
-0.707107 -0.000000 -0.707107
-0.707107 0.000000 0.707107
0.707107 -0.000000 -0.707107
0.707107 -0.000000 -0.707107
0.000000 0.707107 -0.707107
-0.000000 -0.707107 0.707107
-0.707107 -0.707107 0.000000
0.707107 0.707107 -0.000000
0.707107 0.707107 0.000000
-0.707107 -0.707107 -0.000000
-0.707107 0.000000 -0.707107
0.707107 0.000000 0.707107
0.707107 -0.000000 -0.707107
-0.707107 0.000000 0.707107
-0.707107 -0.000000 -0.707107
0.707107 0.000000 0.707107
-0.707107 0.707107 0.000000
0.707107 -0.707107 -0.000000
0.707107 -0.000000 0.707107
-0.707107 0.000000 -0.707107
0.707107 -0.000000 0.707107
-0.707107 0.000000 -0.707107
0.000000 1.414214 0.000000
0.000000 -0.707107 0.707107
0.000000 -0.707107 -0.707107
-0.707107 0.707107 0.000000
0.707107 0.000000 0.707107
-0.000000 -0.707107 -0.707107
0.000000 0.707107 0.707107
-0.000000 -0.707107 -0.707107
0.000000 -0.707107 -0.707107
-0.000000 0.707107 0.707107
0.707107 0.000000 -0.707107
-0.707107 -0.000000 0.707107
-0.707107 0.000000 -0.707107
0.707107 -0.000000 0.707107
-0.707107 0.000000 0.707107
0.707107 0.707107 0.000000
-0.000000 -0.707107 -0.707107
-0.000000 -0.707107 0.707107
0.000000 0.707107 -0.707107
0.707107 -0.707107 0.000000
-0.707107 0.707107 -0.000000
-0.707107 -0.000000 -0.707107
0.707107 0.000000 0.707107
-0.707107 0.000000 0.707107
0.707107 -0.000000 -0.707107
-0.707107 0.707107 -0.000000
0.707107 0.000000 -0.707107
-0.000000 -0.707107 0.707107
0.707107 0.000000 -0.707107
-0.707107 -0.000000 0.707107
-0.707107 0.000000 0.707107
0.707107 -0.000000 -0.707107
-0.707107 -0.000000 0.707107
0.000000 -0.707107 -0.707107
0.707107 0.707107 -0.000000
-0.707107 0.000000 -0.707107
-0.707107 0.000000 -0.707107
0.707107 -0.000000 0.707107
0.707107 -0.000000 0.707107
-0.707107 0.000000 0.707107
0.707107 -0.000000 -0.707107
-0.000000 -0.707107 -0.707107
0.000000 0.707107 0.707107
0.000000 -0.707107 -0.707107
-0.707107 0.707107 0.000000
0.707107 0.000000 0.707107
-0.707107 -0.000000 -0.707107
0.707107 0.000000 0.707107
-0.707107 -0.707107 -0.000000
0.000000 0.707107 -0.707107
0.707107 -0.000000 0.707107
0.000000 0.707107 0.707107
-0.000000 -0.707107 -0.707107
0.707107 0.707107 0.000000
-0.707107 -0.707107 -0.000000
0.707107 0.000000 0.707107
-0.707107 -0.000000 -0.707107
-0.000000 -0.707107 -0.707107
0.000000 0.707107 0.707107
-0.707107 -0.000000 -0.707107
0.707107 0.000000 0.707107
-0.000000 -0.707107 -0.707107
0.000000 0.707107 0.707107
0.707107 0.707107 0.000000
-0.707107 -0.707107 -0.000000
0.000000 -1.414214 0.000000
-0.000000 1.414214 -0.000000
0.707107 0.000000 0.707107
-0.707107 -0.000000 -0.707107
-0.707107 0.707107 -0.000000
0.707107 -0.707107 0.000000
0.000000 -0.707107 0.707107
-0.000000 0.707107 -0.707107
0.000000 0.707107 0.707107
-0.707107 -0.000000 -0.707107
-0.000000 -0.707107 -0.707107
0.707107 0.000000 0.707107
-0.707107 0.000000 -0.707107
0.707107 -0.000000 0.707107
0.000000 0.707107 0.707107
-0.000000 -0.707107 -0.707107
-0.000000 0.707107 0.707107
-0.000000 -0.707107 -0.707107
0.707107 -0.707107 0.000000
-0.707107 0.707107 -0.000000
-0.707107 -0.000000 -0.707107
0.707107 0.000000 0.707107
0.707107 -0.707107 0.000000
-0.707107 0.707107 -0.000000
-0.707107 -0.000000 -0.707107
0.707107 0.000000 0.707107
-0.000000 -0.707107 0.707107
0.000000 0.707107 -0.707107
-0.707107 0.707107 0.000000
0.707107 -0.707107 -0.000000
-0.707107 -0.707107 0.000000
0.707107 0.707107 -0.000000
0.707107 0.707107 0.000000
-0.707107 -0.707107 -0.000000
0.000000 -0.707107 0.707107
-0.000000 0.707107 -0.707107
-0.000000 0.707107 -0.707107
0.000000 -0.707107 0.707107
-0.000000 0.707107 -0.707107
-0.707107 -0.707107 0.000000
0.707107 0.707107 -0.000000
0.000000 0.707107 0.707107
-0.000000 -0.707107 -0.707107
0.707107 0.000000 0.707107
-0.707107 -0.000000 -0.707107
0.000000 -0.707107 -0.707107
-0.000000 0.707107 0.707107
-0.707107 -0.000000 -0.707107
0.707107 0.000000 0.707107
0.707107 0.707107 0.000000
-0.707107 -0.707107 -0.000000
-0.707107 -0.707107 0.000000
0.707107 0.707107 -0.000000
0.707107 -0.000000 0.707107
-0.707107 0.000000 -0.707107
-0.707107 0.000000 0.707107
0.707107 -0.000000 -0.707107
0.000000 -0.707107 -0.707107
-0.000000 0.707107 0.707107
0.707107 -0.000000 -0.707107
-0.707107 0.000000 0.707107
-0.000000 0.707107 -0.707107
-0.707107 -0.000000 0.707107
0.707107 -0.707107 0.000000
0.000000 0.707107 -0.707107
-0.000000 -0.707107 0.707107
-0.707107 0.707107 -0.000000
0.707107 -0.707107 0.000000
0.707107 -0.707107 -0.000000
-0.707107 0.707107 0.000000
-0.000000 -0.707107 -0.707107
0.000000 0.707107 0.707107
-0.707107 -0.707107 -0.000000
0.707107 0.707107 0.000000
-0.707107 -0.000000 -0.707107
0.707107 0.000000 0.707107
-0.707107 0.000000 -0.707107
-0.000000 0.707107 0.707107
0.707107 -0.707107 0.000000
-0.000000 -0.707107 0.707107
0.000000 0.707107 -0.707107
0.707107 0.707107 0.000000
-0.707107 -0.707107 -0.000000
0.707107 0.000000 -0.707107
-0.707107 -0.000000 0.707107
-0.000000 -0.707107 -0.707107
0.000000 0.707107 0.707107
0.000000 0.707107 0.707107
-0.000000 -0.707107 -0.707107
-0.707107 -0.000000 0.707107
0.707107 0.000000 -0.707107
-0.707107 0.707107 0.000000
0.707107 -0.707107 -0.000000
0.707107 -0.707107 -0.000000
0.707107 0.707107 -0.000000
-0.707107 -0.707107 0.000000
-0.707107 0.707107 0.000000
0.707107 -0.707107 -0.000000
-0.707107 -0.000000 0.707107
0.707107 0.000000 -0.707107
0.000000 -0.707107 0.707107
-0.000000 0.707107 -0.707107
-0.707107 0.000000 -0.707107
0.707107 -0.000000 0.707107
-0.707107 0.000000 0.707107
0.707107 -0.000000 -0.707107
-0.707107 0.000000 -0.707107
0.707107 -0.000000 0.707107
0.000000 0.707107 -0.707107
-0.000000 -0.707107 0.707107
0.000000 -0.707107 -0.707107
-0.000000 0.707107 0.707107
-0.000000 0.707107 -0.707107
0.000000 -0.707107 0.707107
0.707107 0.707107 0.000000
-0.707107 -0.707107 -0.000000
0.707107 0.000000 -0.707107
-0.707107 -0.000000 0.707107
-0.000000 -0.707107 0.707107
-0.707107 0.000000 -0.707107
0.707107 0.707107 0.000000
0.000000 0.707107 0.707107
-0.000000 -0.707107 -0.707107
-0.707107 -0.000000 0.707107
-0.000000 -0.707107 -0.707107
0.707107 0.707107 0.000000
0.000000 0.707107 -0.707107
0.707107 0.000000 0.707107
-0.707107 -0.707107 -0.000000
0.000000 0.707107 -0.707107
0.707107 -0.707107 0.000000
-0.707107 -0.000000 0.707107
0.707107 -0.000000 -0.707107
-0.707107 0.000000 0.707107
0.707107 -0.707107 -0.000000
-0.707107 0.707107 0.000000
-0.707107 -0.000000 -0.707107
0.707107 0.000000 0.707107
0.707107 -0.707107 0.000000
-0.707107 0.707107 -0.000000
0.707107 0.707107 0.000000
-0.000000 -0.707107 0.707107
-0.707107 0.000000 -0.707107
-0.707107 -0.000000 -0.707107
0.707107 0.000000 0.707107
-0.707107 0.707107 0.000000
0.707107 -0.707107 -0.000000
-0.000000 0.707107 -0.707107
0.000000 -0.707107 0.707107
-0.000000 -0.707107 0.707107
-0.000000 -0.000000 -1.414214
0.000000 0.707107 0.707107
-0.707107 0.000000 0.707107
0.707107 -0.000000 -0.707107
0.707107 0.707107 0.000000
-0.707107 -0.707107 -0.000000
-0.707107 0.000000 -0.707107
0.707107 -0.000000 0.707107
-0.707107 -0.707107 0.000000
0.707107 0.707107 0.000000
0.000000 0.707107 0.707107
-0.000000 -0.707107 -0.707107
-0.707107 0.000000 0.707107
0.707107 -0.000000 -0.707107
-0.707107 0.707107 0.000000
0.707107 -0.707107 -0.000000
0.000000 0.707107 0.707107
-0.707107 -0.707107 0.000000
0.707107 0.000000 -0.707107
0.707107 -0.000000 -0.707107
-0.707107 0.000000 0.707107
0.707107 0.000000 0.707107
-0.707107 0.000000 -0.707107
0.707107 -0.707107 -0.000000
-0.707107 0.707107 0.000000
-0.000000 0.707107 -0.707107
0.000000 -0.707107 0.707107
-0.707107 -0.000000 -0.707107
0.707107 0.000000 0.707107
0.707107 0.707107 0.000000
-0.707107 -0.707107 -0.000000
0.707107 -0.707107 -0.000000
-0.707107 0.707107 -0.000000
0.707107 0.000000 -0.707107
-0.707107 -0.000000 0.707107
0.000000 0.707107 -0.707107
-0.000000 -0.707107 0.707107
0.000000 0.707107 0.707107
0.000000 0.707107 0.707107
0.707107 -0.000000 -0.707107
-0.707107 -0.707107 0.000000
0.000000 0.707107 0.707107
-0.000000 -0.707107 -0.707107
-0.707107 0.000000 0.707107
0.707107 -0.000000 -0.707107
-0.000000 -0.707107 0.707107
0.707107 0.000000 -0.707107
-0.707107 0.707107 -0.000000
0.707107 0.000000 0.707107
-0.707107 -0.000000 -0.707107
0.707107 0.000000 -0.707107
-0.707107 0.000000 0.707107
-0.707107 0.000000 0.707107
0.707107 0.707107 0.000000
-0.707107 -0.707107 -0.000000
0.707107 -0.000000 -0.707107
-0.707107 0.000000 0.707107
0.000000 -0.707107 -0.707107
-0.000000 0.707107 0.707107
-0.707107 0.000000 -0.707107
0.707107 -0.000000 0.707107
-0.707107 0.000000 -0.707107
0.707107 -0.000000 0.707107
0.707107 -0.000000 0.707107
0.707107 -0.000000 0.707107
-0.707107 0.000000 -0.707107
0.707107 0.000000 0.707107
-0.707107 -0.000000 -0.707107
-0.000000 0.707107 0.707107
0.000000 -0.707107 -0.707107
0.707107 0.000000 -0.707107
0.000000 -0.707107 -0.707107
-1.414214 0.707107 0.707107
0.707107 -0.000000 0.707107
0.000000 -0.707107 0.707107
-0.000000 0.707107 -0.707107
-0.000000 -0.707107 0.707107
0.000000 0.707107 -0.707107
0.707107 -0.707107 0.000000
-0.707107 0.707107 -0.000000
-0.707107 0.707107 0.000000
0.707107 -0.707107 -0.000000
0.000000 -0.707107 -0.707107
-0.000000 0.707107 0.707107
-0.000000 0.707107 -0.707107
0.000000 -0.707107 0.707107
0.707107 -0.000000 -0.707107
-0.707107 0.000000 0.707107
0.000000 0.707107 -0.707107
-0.000000 -0.707107 0.707107
0.707107 0.707107 -0.000000
-0.707107 -0.707107 0.000000
-0.707107 -0.707107 0.000000
0.707107 -0.707107 0.000000
-0.707107 0.707107 -0.000000
-0.707107 0.707107 0.000000
-0.000000 -0.707107 -0.707107
0.707107 -0.000000 0.707107
0.000000 -0.707107 0.707107
-0.000000 0.707107 -0.707107
-0.707107 -0.707107 0.000000
-0.000000 0.707107 -0.707107
0.707107 -0.000000 0.707107
0.707107 -0.000000 -0.707107
-0.707107 0.000000 0.707107
0.000000 0.707107 0.707107
-0.000000 -0.707107 -0.707107
-0.707107 -0.707107 -0.000000
0.707107 0.707107 0.000000
-0.707107 -0.000000 -0.707107
-0.707107 0.707107 0.000000
1.414214 -0.707107 0.707107
0.707107 0.000000 -0.707107
-0.707107 -0.000000 0.707107
-0.707107 0.707107 -0.000000
0.707107 -0.707107 0.000000
-0.000000 -0.707107 -0.707107
0.000000 0.707107 0.707107
-0.707107 -0.707107 -0.000000
0.707107 0.707107 0.000000
0.000000 -0.707107 0.707107
-0.000000 0.707107 -0.707107
0.707107 -0.707107 -0.000000
-0.707107 0.707107 0.000000
-0.707107 -0.000000 -0.707107
0.707107 0.000000 0.707107
0.707107 0.000000 0.707107
-0.707107 -0.000000 -0.707107
0.000000 0.707107 -0.707107
-0.000000 -0.707107 0.707107
0.707107 -0.000000 0.707107
-0.707107 -0.707107 0.000000
0.000000 0.707107 -0.707107
0.000000 0.707107 0.707107
-0.000000 -0.707107 -0.707107
-0.707107 0.000000 0.707107
0.707107 -0.000000 -0.707107
-0.707107 0.000000 0.707107
0.707107 -0.000000 -0.707107
0.707107 -0.707107 0.000000
-0.707107 0.707107 0.000000
0.707107 -0.000000 0.707107
-0.707107 0.000000 -0.707107
-0.707107 0.707107 -0.000000
0.707107 -0.707107 0.000000
-0.000000 0.707107 0.707107
-0.000000 0.707107 0.707107
0.000000 -0.707107 -0.707107
0.707107 0.000000 -0.707107
-0.707107 -0.000000 0.707107
-0.707107 0.707107 0.000000
-0.707107 0.707107 0.000000
-0.000000 -0.707107 -0.707107
0.707107 -0.000000 0.707107
-0.000000 -0.707107 -0.707107
0.707107 -0.000000 0.707107
0.000000 0.707107 -0.707107
-0.707107 0.000000 0.707107
0.707107 0.707107 0.000000
-0.707107 -0.707107 -0.000000
0.000000 0.707107 0.707107
-0.000000 -0.707107 -0.707107
-0.000000 -0.707107 -0.707107
0.000000 0.707107 0.707107
0.000000 0.707107 0.707107
-0.000000 -0.707107 -0.707107
-0.000000 -0.707107 -0.707107
-0.707107 -0.707107 0.000000
0.707107 0.707107 -0.000000
-0.000000 -0.707107 -0.707107
0.000000 0.707107 0.707107
0.000000 0.707107 0.707107
0.000000 -0.707107 0.707107
-0.000000 0.707107 -0.707107
-0.000000 -0.707107 -0.707107
-0.000000 0.707107 0.707107
-0.707107 0.707107 -0.000000
0.000000 -0.707107 0.707107
0.707107 0.000000 -0.707107
-0.000000 0.707107 0.707107
0.000000 -0.707107 -0.707107
0.707107 -0.707107 0.000000
-0.707107 0.707107 -0.000000
0.707107 0.707107 -0.000000
-0.707107 -0.707107 0.000000
-0.707107 0.707107 0.000000
0.707107 -0.707107 -0.000000
0.000000 0.707107 0.707107
-0.707107 0.707107 0.000000
0.707107 -0.707107 0.000000
0.707107 -0.000000 -0.707107
-0.707107 0.000000 0.707107
-0.707107 -0.000000 0.707107
0.707107 -0.000000 -0.707107
-0.000000 0.707107 0.707107
0.000000 -0.707107 -0.707107
0.000000 0.707107 0.707107
-0.000000 -0.707107 -0.707107
0.707107 0.000000 0.707107
-0.707107 -0.000000 -0.707107
-0.707107 -0.707107 -0.000000
0.707107 0.707107 -0.000000
-0.000000 -0.707107 0.707107
0.000000 0.707107 -0.707107
-0.707107 -0.707107 0.000000
0.707107 0.707107 -0.000000
0.000000 0.707107 -0.707107
-0.000000 -0.707107 0.707107
0.707107 -0.000000 0.707107
-0.707107 -0.000000 -0.707107
-0.707107 0.000000 -0.707107
0.707107 -0.000000 0.707107
0.707107 -0.000000 0.707107
0.000000 0.707107 -0.707107
-0.000000 -0.707107 0.707107
0.000000 0.707107 -0.707107
-0.707107 -0.707107 0.000000
0.707107 -0.000000 0.707107
-0.707107 -0.707107 -0.000000
0.707107 0.707107 0.000000
-0.707107 0.000000 -0.707107
0.707107 -0.000000 -0.707107
0.000000 0.000000 1.414214
-0.000000 0.707107 0.707107
-0.000000 0.707107 0.707107
0.000000 -0.707107 -0.707107
-0.707107 0.707107 0.000000
0.707107 -0.707107 -0.000000
-0.707107 -0.707107 -0.000000
-0.707107 -0.707107 -0.000000
0.707107 0.707107 0.000000
-0.707107 0.000000 0.707107
0.707107 -0.000000 -0.707107
0.707107 0.000000 0.707107
-0.707107 -0.000000 -0.707107
0.707107 -0.707107 0.000000
-0.707107 0.707107 -0.000000
-0.707107 0.000000 0.707107
0.707107 -0.000000 -0.707107
-0.000000 -0.707107 -0.707107
0.000000 0.707107 0.707107
-0.707107 -0.707107 0.000000
0.707107 0.707107 -0.000000
-0.707107 -0.707107 0.000000
0.707107 0.707107 -0.000000
0.707107 -0.707107 0.000000
-0.707107 0.707107 -0.000000
0.000000 0.707107 -0.707107
-0.000000 -0.707107 0.707107
0.707107 0.707107 0.000000
-0.707107 -0.707107 -0.000000
0.000000 0.707107 0.707107
-0.000000 -0.707107 -0.707107
0.000000 -0.707107 -0.707107
-0.000000 0.707107 0.707107
0.707107 -0.707107 -0.000000
-0.707107 0.707107 -0.000000
0.000000 0.707107 0.707107
-0.000000 -0.707107 -0.707107
-0.707107 0.000000 -0.707107
0.707107 -0.000000 0.707107
0.000000 0.707107 -0.707107
-0.000000 -0.707107 0.707107
0.000000 -0.707107 -0.707107
0.707107 0.000000 0.707107
-0.707107 0.707107 -0.000000
-0.707107 0.707107 0.000000
0.707107 -0.707107 -0.000000
0.707107 -0.707107 0.000000
-0.707107 0.707107 -0.000000
0.707107 -0.707107 0.000000
-0.707107 0.707107 -0.000000
0.707107 -0.000000 0.707107
-0.707107 0.000000 -0.707107
0.000000 0.707107 -0.707107
-0.000000 -0.707107 0.707107
-0.000000 -0.707107 -0.707107
0.000000 0.707107 0.707107
-0.000000 -0.707107 0.707107
0.000000 0.707107 -0.707107
-0.000000 -0.707107 -0.707107
0.000000 0.707107 0.707107
0.707107 -0.707107 0.000000
-0.707107 0.707107 -0.000000
0.000000 0.707107 0.707107
-0.000000 -0.707107 -0.707107
0.000000 -0.707107 0.707107
0.000000 0.707107 -0.707107
-0.707107 -0.000000 -0.707107
0.707107 0.000000 0.707107
-0.000000 0.707107 0.707107
0.000000 -0.707107 -0.707107
-0.000000 0.707107 0.707107
0.000000 -0.707107 -0.707107
0.707107 -0.000000 -0.707107
-0.707107 0.000000 0.707107
-0.707107 0.000000 0.707107
0.707107 -0.000000 0.707107
-0.707107 0.000000 -0.707107
-0.000000 0.707107 -0.707107
0.000000 -0.707107 0.707107
-0.707107 0.000000 -0.707107
0.707107 -0.000000 0.707107
0.000000 -0.707107 -0.707107
-0.000000 0.707107 0.707107
0.707107 -0.707107 0.000000
-0.707107 0.707107 -0.000000
0.000000 0.707107 -0.707107
-0.000000 -0.707107 0.707107
0.000000 0.707107 -0.707107
0.707107 0.000000 0.707107
-0.707107 -0.707107 0.000000
0.707107 0.707107 -0.000000
-0.707107 -0.707107 0.000000
-0.707107 0.000000 0.707107
0.707107 -0.000000 -0.707107
-0.707107 0.000000 -0.707107
0.000000 -0.707107 0.707107
0.707107 0.707107 0.000000
0.000000 0.707107 -0.707107
-0.000000 -0.707107 0.707107
0.707107 0.000000 -0.707107
-0.707107 -0.000000 0.707107
-0.000000 0.707107 0.707107
0.000000 -0.707107 -0.707107
0.707107 0.707107 0.000000
-0.707107 -0.707107 0.000000
-0.000000 -0.707107 -0.707107
0.000000 0.707107 0.707107
-0.000000 0.707107 0.707107
0.000000 -0.707107 -0.707107
0.000000 0.707107 -0.707107
-0.000000 -0.707107 0.707107
0.707107 0.000000 0.707107
-0.707107 -0.000000 -0.707107
-0.000000 -0.707107 0.707107
0.000000 0.707107 -0.707107
-0.000000 -0.707107 -0.707107
0.000000 0.707107 0.707107
0.000000 0.707107 -0.707107
-0.000000 -0.707107 0.707107
0.707107 -0.707107 0.000000
-0.707107 0.707107 -0.000000
0.707107 0.707107 -0.000000
-0.707107 -0.707107 0.000000
0.000000 0.707107 0.707107
-0.000000 -0.707107 -0.707107
0.000000 -0.707107 0.707107
0.000000 -0.707107 0.707107
-0.000000 0.707107 -0.707107
0.000000 0.707107 0.707107
0.000000 -0.707107 -0.707107
-0.707107 -0.000000 -0.707107
0.707107 0.000000 0.707107
0.707107 0.000000 0.707107
0.000000 -0.707107 0.707107
-0.000000 0.707107 -0.707107
0.000000 0.707107 0.707107
-0.707107 0.000000 0.707107
0.707107 -0.000000 -0.707107
-0.000000 -0.707107 -0.707107
0.000000 0.707107 0.707107
-0.707107 -0.707107 0.000000
0.707107 0.707107 0.000000
-0.000000 -0.707107 0.707107
0.000000 0.707107 -0.707107
0.707107 0.707107 -0.000000
-0.707107 -0.707107 0.000000
0.707107 0.707107 -0.000000
-0.707107 -0.707107 0.000000
-0.000000 0.707107 0.707107
-0.000000 0.707107 -0.707107
0.000000 -0.707107 0.707107
0.000000 -0.707107 -0.707107
-0.707107 0.000000 -0.707107
0.000000 -0.707107 0.707107
0.707107 0.707107 -0.000000
-0.000000 -0.707107 -0.707107
0.000000 0.707107 0.707107
0.707107 -0.000000 0.707107
-0.707107 -0.000000 0.707107
0.707107 0.000000 -0.707107
-0.707107 0.000000 -0.707107
0.707107 0.000000 -0.707107
-0.707107 -0.000000 0.707107
-0.000000 -0.000000 1.414214
0.707107 -0.000000 -0.707107
-0.707107 0.000000 -0.707107
0.707107 -0.707107 0.000000
-0.707107 0.707107 -0.000000
-0.707107 -0.000000 -0.707107
0.707107 0.000000 0.707107
-0.707107 0.000000 0.707107
0.707107 -0.000000 -0.707107
0.000000 0.707107 0.707107
-0.000000 -0.707107 -0.707107
0.000000 0.707107 0.707107
-0.000000 -0.707107 -0.707107
0.000000 -0.707107 -0.707107
-0.000000 0.707107 0.707107
-0.707107 -0.000000 0.707107
0.707107 0.000000 -0.707107
0.707107 0.707107 0.000000
-0.707107 -0.707107 -0.000000
0.000000 0.707107 0.707107
-0.000000 -0.707107 -0.707107
-0.707107 0.000000 0.707107
0.707107 -0.000000 -0.707107
0.707107 -0.000000 -0.707107
0.707107 0.707107 0.000000
-0.707107 -0.707107 -0.000000
-0.000000 1.414214 -0.000000
-0.000000 -0.707107 0.707107
0.000000 -0.707107 -0.707107
0.707107 -0.707107 -0.000000
-0.707107 0.707107 0.000000
-0.707107 -0.707107 0.000000
0.707107 0.707107 -0.000000
-0.000000 -0.707107 -0.707107
-0.000000 0.707107 0.707107
-0.707107 -0.707107 0.000000
0.707107 0.707107 -0.000000
-0.707107 0.707107 0.000000
0.707107 -0.707107 -0.000000
0.000000 0.707107 -0.707107
0.000000 -0.707107 0.707107
-0.707107 -0.000000 -0.707107
0.707107 0.000000 0.707107
-0.707107 0.000000 0.707107
0.707107 -0.000000 -0.707107
-0.707107 0.000000 -0.707107
0.707107 -0.000000 0.707107
-0.000000 0.707107 -0.707107
0.000000 -0.707107 0.707107
0.000000 0.707107 0.707107
-0.000000 -0.707107 -0.707107
-0.707107 -0.707107 0.000000
0.707107 0.707107 -0.000000
0.000000 0.707107 -0.707107
-0.000000 -0.707107 0.707107
0.000000 -0.707107 -0.707107
0.000000 0.707107 0.707107
0.000000 0.707107 0.707107
-0.000000 -0.707107 -0.707107
0.707107 0.707107 -0.000000
-0.707107 -0.707107 0.000000
0.707107 -0.000000 -0.707107
-0.707107 0.000000 0.707107
0.707107 -0.000000 -0.707107
-0.000000 0.707107 -0.707107
0.000000 -0.707107 0.707107
0.707107 -0.000000 0.707107
-0.707107 0.000000 -0.707107
-0.707107 -0.000000 -0.707107