# vtk DataFile Version 3.0
Configuration exported from OpenDiS
ASCII
DATASET UNSTRUCTURED_GRID
POINTS 40824 FLOAT
-29412.000000 -29412.000000 -29412.000000
29412.000000 -29412.000000 -29412.000000
-29412.000000 29412.000000 -29412.000000
-29412.000000 -29412.000000 29412.000000
29412.000000 29412.000000 -29412.000000
29412.000000 -29412.000000 29412.000000
-29412.000000 29412.000000 29412.000000
29412.000000 29412.000000 29412.000000
19369.352905 19457.903102 -20393.005601
19369.353045 19575.277359 -20275.631484
19369.352905 19457.903102 -20393.005601
19782.387814 18866.187139 -21397.756473
19369.352905 19457.903102 -20393.005601
19999.175895 19162.815683 -20058.270031
7815.539251 9007.863343 23959.844743
9035.900979 10228.225078 23959.844736
7815.539251 9007.863343 23959.844743
8036.311414 8329.960043 24858.520206
7815.539251 9007.863343 23959.844743
7389.269161 8645.458003 24023.709488
20293.657720 9325.821469 25022.747210
20293.657720 8662.266087 24363.008825
20293.657720 9325.821469 25022.747210
20293.657720 9919.971949 25614.423773
133.280411 -11001.873958 -11280.064276
-268.253822 -10615.367359 -11280.064276
133.280411 -11001.873958 -11280.064276
1143.787531 -12026.371404 -11280.064276
15765.127021 -15197.948674 -16980.033366
15943.580332 -15701.375589 -17305.006969
15765.127021 -15197.948674 -16980.033366
15420.135716 -14330.750525 -16457.826521
-1426.251122 14283.809425 10047.578736
-848.109585 13925.723254 10983.820232
-1426.251122 14283.809425 10047.578736
-1934.266082 14728.497704 9094.847920
-24598.615214 19121.924178 -26894.441769
-25020.098210 18923.195838 -27117.033755
-24598.615214 19121.924178 -26894.441769
-24161.053714 19264.214344 -26599.170436
22289.600578 24989.417511 28019.307104
21433.545883 25845.472206 28019.307104
22289.600578 24989.417511 28019.307104
23040.476874 24238.541215 28019.307104
9503.298274 7586.623855 -28928.804508
8712.796622 8377.322003 -28928.804508
9503.298274 7586.623855 -28928.804508
9844.955185 7251.040283 -28928.804508
3820.729772 25638.080578 -1019.913915
4135.885613 25638.080578 -1335.795389
3820.729772 25638.080578 -1019.913915
3029.119011 25638.080578 -227.497877
-16690.639183 14306.099248 -17335.473711
-15934.431747 14232.849509 -16652.516014
-16690.639183 14306.099248 -17335.473711
-17816.471651 14426.670681 -18340.734746
11538.800688 15128.283961 9179.485675
11704.153042 14199.270121 10273.851869
11538.800688 15128.283961 9179.485675
11617.259143 16014.339966 8371.888124
-3330.612330 -11556.871476 -24617.598756
-3000.435950 -10878.213422 -23608.764322
-3330.612330 -11556.871476 -24617.598756
-3831.979484 -12086.392190 -25648.486624
12731.437270 -24073.804476 22585.623497
14027.780547 -23773.854460 21589.230236
12731.437270 -24073.804476 22585.623497
11899.634126 -24151.221854 23340.009262
-25110.851271 25375.908240 10460.247947
-25080.747422 25773.832959 10888.276515
-25110.851271 25375.908240 10460.247947
-24927.030085 24191.605728 9459.766622
26949.842913 -2791.537688 -10068.625534
27201.093883 -3588.100266 -10613.937142
26949.842913 -2791.537688 -10068.625534
26337.500737 -1365.140868 -9254.570890
20544.067593 27768.132156 29052.488764
20945.809927 27716.736277 28702.142309
20544.067593 27768.132156 29052.488764
20412.799635 27423.611879 28576.700528
20544.067593 27768.132156 29052.488764
19868.092031 28562.680918 29171.061964
13386.382430 15711.103147 -658.521338
13386.382430 16389.728146 -1337.146337
13386.382430 15711.103147 -658.521338
13386.416196 15002.176817 50.435334
18510.864010 8875.135451 16320.129300
18864.131800 8864.700504 16662.963657
18510.864010 8875.135451 16320.129300
18134.663849 8914.521591 15983.314811
-25967.827109 -9513.928571 -21630.201179
-25372.203257 -9789.836283 -21310.485039
-25967.827109 -9513.928571 -21630.201179
-25444.679764 -9092.270152 -21731.690107
-25967.827109 -9513.928571 -21630.201179
-25967.827109 -9789.836283 -21906.108891
-26874.127466 27699.940192 21193.471767
-27724.602663 27901.281256 20544.337633
-26874.127466 27699.940192 21193.471767
-26114.517121 27478.983498 21732.125418
15705.365968 -14485.005983 15071.914485
16484.583079 -14109.076867 13916.768259
15705.365968 -14485.005983 15071.914485
16411.879112 -15191.519127 15071.914485
15705.365968 -14485.005983 15071.914485
14862.609334 -14327.960886 14386.202948
-18512.954853 19920.171313 -16142.336810
-18512.955259 19264.112390 -16797.305718
-18512.954853 19920.171313 -16142.336810
-18512.956218 20808.100298 -15325.115006
-26309.319411 22128.523187 16477.982334
-26919.430271 22560.316271 16656.300110
-26309.319411 22128.523187 16477.982334
-25700.119089 21697.092931 16300.212268
25355.212422 16710.698185 -1282.281633
25702.690849 15601.176377 -2044.325013
25355.212422 16710.698185 -1282.281633
24967.671219 17784.685655 -595.835365
-5961.575191 15168.600796 -10813.898326
-5566.239513 15284.090771 -10534.052623
-5961.575191 15168.600796 -10813.898326
-6323.761874 14991.998974 -10999.483187
1385.197417 -14473.416940 14355.135015
1159.311511 -15653.242059 15309.074228
1385.197417 -14473.416940 14355.135015
1913.916518 -12881.252995 13291.690171
-6472.297632 -9246.547303 -25848.013363
-7378.566814 -8914.356175 -25273.935309
-6472.297632 -9246.547303 -25848.013363
-5550.348249 -9593.184208 -26423.325842
-11301.244285 10533.686434 -21714.469015
-11351.864789 10915.927761 -22147.330846
-11301.244285 10533.686434 -21714.469015
-11188.082047 10233.828155 -21301.448497
-18502.084333 -15563.608986 -8666.593412
-18598.920629 -15162.593653 -9164.445041
-18502.084333 -15563.608986 -8666.593412
-18310.778370 -16507.463491 -7531.432944
-11887.890913 13072.719407 10379.721059
-11351.027007 12397.510337 10241.375895
-11887.890913 13072.719407 10379.721059
-12526.506396 13876.826619 10545.212788
-16619.963703 -24689.172222 10788.487616
-17060.879720 -24621.388801 11297.187053
-16619.963703 -24689.172222 10788.487616
-15862.429174 -24680.997900 10039.127409
-9170.817766 -7980.894050 -27875.457258
-9080.935579 -8584.838953 -27181.630168
-9170.817766 -7980.894050 -27875.457258
-9195.566265 -7240.070742 -28641.029065
-3607.237391 -23761.702646 -13517.365910
-3784.257772 -23458.936794 -13391.645745
-3607.237391 -23761.702646 -13517.365910
-2973.627180 -23530.545021 -12652.598074
-3607.237391 -23761.702646 -13517.365910
-3944.759350 -23238.545488 -14378.045028
2613.209076 -10715.508598 -14092.010551
1547.124925 -10271.984299 -14714.570403
2613.209076 -10715.508598 -14092.010551
4001.393512 -11192.413858 -13180.731375
-13280.645264 11197.811237 -22846.621940
-14673.483672 12589.739307 -22846.621940
-13280.645264 11197.811237 -22846.621940
-12629.257999 10873.608291 -23173.806258
-13280.645264 11197.811237 -22846.621940
-12062.105397 10871.177509 -21301.448345
-6380.593298 12167.381046 12522.910877
-6105.826760 11689.768600 11770.531893
-6380.593298 12167.381046 12522.910877
-6857.637762 12621.036917 13453.611212
11427.515160 7872.732685 -2987.917225
10444.667050 7243.472279 -2634.329521
11427.515160 7872.732685 -2987.917225
12275.068807 8581.766788 -3126.436769
-16229.484682 13153.816921 -24493.824311
-16378.455776 13925.276274 -23871.336051
-16229.484682 13153.816921 -24493.824311
-16274.843721 12478.616614 -25214.383657
28208.971149 18344.440397 21600.682350
29162.289922 18370.751960 22580.312686
28208.971149 18344.440397 21600.682350
27861.971831 18430.884506 21340.127141
2360.188586 -18874.588392 4439.158216
2544.687078 -19224.835949 4604.907281
2360.188586 -18874.588392 4439.158216
2093.937029 -18315.435101 4146.256482
-11849.318357 -4124.333494 26451.664859
-11390.978171 -3387.146952 26730.511214
-11849.318357 -4124.333494 26451.664859
-12477.839510 -4713.817115 26490.702390
-27273.889357 -5723.679615 -1287.554178
-27273.889357 -4887.105283 -458.695037
-27273.889357 -5723.679615 -1287.554178
-27273.889357 -6639.911648 -2200.218538
22202.795298 21575.865145 430.381618
20939.029464 22839.544393 430.381618
22202.795298 21575.865145 430.381618
22513.138474 21265.435383 430.381618
14117.850968 4375.891934 16934.315855
13462.433268 3583.418797 15486.425018
14117.850968 4375.891934 16934.315855
14454.321534 4655.458657 17550.353144
25478.752409 22871.563338 14123.384987
26325.749486 23154.890405 15253.709131
25478.752409 22871.563338 14123.384987
24575.516292 22733.616892 13082.202423
4857.092687 -25586.386203 14722.162301
4857.092687 -26792.153954 13533.198437
4857.092687 -25586.386203 14722.162301
4857.092687 -25148.617203 15160.272661
-16408.859440 -23538.086044 25677.117679
-17298.813936 -23667.162712 26437.995507
-16408.859440 -23538.086044 25677.117679
-15924.558753 -23481.813603 25249.089433
27363.118750 25001.345675 -12323.229260
28139.049839 24233.432282 -12323.229260
27363.118750 25001.345675 -12323.229260
26599.601107 25757.863821 -12323.229260
12704.889447 -4764.876073 2095.468948
12252.411532 -5320.111401 1087.755705
12704.889447 -4764.876073 2095.468948
13040.468599 -4357.396760 2838.527414
12383.207243 19488.995244 9720.294983
12822.979760 19110.582980 10538.479764
12383.207243 19488.995244 9720.294983
12108.665547 19737.781939 9196.966592
-28390.498328 27752.416008 -28805.456131
-28366.659712 28382.798496 -29412.000003
-28366.659712 28382.798496 29411.999986
-28339.201833 29108.887870 28713.368502
-28390.498328 27752.416008 -28805.456131
-28969.104514 27804.067244 -28278.501181
-28390.498328 27752.416008 -28805.456131
-29198.374461 26849.017731 -28709.933987
-21744.670469 -110.753146 17708.865401
-22646.001808 377.011198 17295.298405
-21744.670469 -110.753146 17708.865401
-20970.968455 -570.010467 18023.310093
19215.422638 1612.310605 -590.423305
19832.554846 1405.342599 -180.259105
19215.422638 1612.310605 -590.423305
18618.964614 1917.176102 -882.015833
8948.898684 4978.562683 22404.094307
8812.272291 4841.936290 22404.094307
8948.898684 4978.562683 22404.094307
8948.898684 4139.309861 23243.261243
-13163.182210 -17422.613610 18510.555291
-13163.181821 -18248.897596 17683.038033
-13163.182210 -17422.613610 18510.555291
-14030.078178 -16852.650709 18807.488358
[...]
CELL_DATA 20409
VECTORS Burgers FLOAT
0.000000 0.000000 0.000000
-0.707107 -0.707107 0.000000
0.707107 0.000000 -0.707107
-0.000000 0.707107 0.707107
0.707107 -0.707107 0.000000
-0.000000 0.707107 -0.707107
-0.707107 -0.000000 0.707107
0.000000 -0.707107 0.707107
0.000000 0.707107 -0.707107
-0.707107 -0.707107 -0.000000
0.707107 0.707107 0.000000
0.000000 0.707107 0.707107
-0.000000 -0.707107 -0.707107
-0.707107 0.000000 -0.707107
0.707107 -0.000000 0.707107
-0.000000 0.707107 -0.707107
0.000000 -0.707107 0.707107
-0.707107 -0.707107 0.000000
0.707107 0.707107 -0.000000
0.707107 0.707107 0.000000
-0.707107 -0.707107 -0.000000
-0.707107 0.000000 -0.707107
0.707107 0.000000 0.707107
-0.707107 -0.000000 -0.707107
0.707107 0.000000 0.707107
-0.707107 -0.000000 -0.707107
0.707107 0.000000 0.707107
-0.707107 0.000000 -0.707107
0.707107 -0.000000 0.707107
0.707107 0.000000 -0.707107
-0.707107 -0.000000 0.707107
0.707107 -0.000000 0.707107
-0.707107 0.000000 -0.707107
0.000000 0.707107 0.707107
-0.000000 -0.707107 -0.707107
-0.707107 0.707107 0.000000
0.707107 0.000000 0.707107
-0.000000 -0.707107 -0.707107
0.000000 0.707107 0.707107
-0.000000 -0.707107 -0.707107
0.000000 -0.707107 -0.707107
-0.000000 0.707107 0.707107
0.707107 -0.707107 0.000000
-0.707107 -0.000000 0.707107
0.000000 0.707107 -0.707107
-0.707107 0.000000 -0.707107
0.707107 -0.000000 0.707107
-0.707107 0.000000 0.707107
0.707107 0.707107 0.000000
-0.000000 -0.707107 -0.707107
-0.000000 -0.707107 0.707107
0.000000 0.707107 -0.707107
0.707107 -0.707107 0.000000
-0.707107 0.707107 -0.000000
-0.000000 0.707107 0.707107
0.000000 -0.707107 -0.707107
-0.000000 -0.707107 0.707107
0.000000 0.707107 -0.707107
0.000000 0.707107 -0.707107
-0.000000 -0.707107 0.707107
0.707107 0.000000 -0.707107
-0.707107 -0.000000 0.707107
0.707107 0.000000 0.707107
-0.707107 -0.000000 -0.707107
0.707107 -0.000000 0.707107
-0.707107 -0.000000 -0.707107
-0.000000 0.707107 0.707107
0.000000 -0.707107 -0.707107
-0.707107 0.000000 0.707107
0.707107 -0.000000 -0.707107
-0.000000 0.707107 -0.707107
0.000000 -0.707107 0.707107
0.000000 -0.707107 -0.707107
-0.707107 0.707107 0.000000
0.707107 0.000000 0.707107
0.707107 0.000000 0.707107
-0.707107 -0.000000 -0.707107
-0.707107 -0.707107 -0.000000
0.000000 0.707107 -0.707107
0.707107 -0.000000 0.707107
0.000000 0.707107 0.707107
-0.000000 -0.707107 -0.707107
-0.707107 -0.000000 0.707107
0.707107 0.000000 -0.707107
-0.707107 0.000000 -0.707107
0.707107 -0.000000 0.707107
0.707107 -0.707107 0.000000
-0.707107 0.707107 -0.000000
0.000000 0.707107 -0.707107
-0.000000 -0.707107 0.707107
-0.000000 -0.707107 -0.707107
0.000000 0.707107 0.707107
0.000000 0.707107 -0.707107
-0.000000 -0.707107 0.707107
0.000000 -1.414214 0.000000
-0.000000 1.414214 -0.000000
0.707107 0.000000 0.707107
-0.707107 -0.000000 -0.707107
-0.707107 -0.000000 -0.707107
0.707107 0.000000 0.707107
0.000000 -0.707107 0.707107
-0.000000 0.707107 -0.707107
0.707107 0.707107 0.000000
-0.707107 -0.707107 -0.000000
0.707107 0.707107 0.000000
-0.707107 -0.707107 -0.000000
0.000000 0.707107 0.707107
-0.000000 -0.707107 -0.707107
-0.707107 0.000000 -0.707107
0.707107 -0.000000 0.707107
-0.707107 -0.707107 0.000000
-0.707107 -0.707107 0.000000
-0.000000 0.707107 -0.707107
0.707107 -0.000000 0.707107
-0.707107 -0.000000 -0.707107
0.707107 0.000000 0.707107
-0.707107 -0.000000 -0.707107
0.707107 0.000000 0.707107
-0.000000 0.707107 0.707107
-0.000000 -0.707107 -0.707107
-0.000000 -0.707107 0.707107
0.000000 0.707107 -0.707107
-0.707107 0.707107 0.000000
0.707107 -0.707107 -0.000000
-0.707107 -0.707107 0.000000
0.707107 0.707107 -0.000000
0.707107 0.707107 0.000000
-0.707107 -0.707107 -0.000000
0.000000 -0.707107 0.707107
-0.000000 0.707107 -0.707107
0.000000 -0.707107 0.707107
-0.000000 0.707107 -0.707107
-0.707107 -0.707107 0.000000
0.707107 0.707107 -0.000000
-0.707107 0.000000 -0.707107
0.707107 -0.000000 0.707107
0.707107 0.707107 -0.000000
-0.707107 -0.707107 0.000000
-0.707107 -0.707107 -0.000000
0.707107 0.707107 0.000000
0.707107 -0.707107 -0.000000
-0.707107 0.707107 0.000000
0.707107 0.707107 -0.000000
-0.707107 -0.707107 0.000000
-0.707107 0.707107 -0.000000
-0.707107 0.707107 -0.000000
0.707107 -0.707107 0.000000
0.707107 -0.000000 0.707107
-0.707107 0.000000 -0.707107
0.000000 -1.414214 0.000000
-0.000000 0.707107 -0.707107
-0.000000 0.707107 0.707107
0.707107 -0.000000 0.707107
-0.707107 -0.000000 -0.707107
0.707107 -0.000000 -0.707107
-0.707107 0.000000 0.707107
0.707107 -0.707107 0.000000
-0.000000 0.707107 -0.707107
-0.707107 -0.000000 0.707107
0.000000 0.707107 -0.707107
-0.000000 -0.707107 0.707107
0.707107 0.000000 0.707107
-0.707107 -0.000000 -0.707107
0.707107 -0.707107 -0.000000
-0.707107 0.707107 0.000000
0.707107 0.000000 -0.707107
-0.707107 -0.000000 0.707107
-0.000000 0.707107 0.707107
0.000000 -0.707107 -0.707107
-0.707107 -0.000000 -0.707107
0.707107 0.000000 0.707107
-0.707107 0.000000 -0.707107
-0.000000 0.707107 0.707107
0.707107 -0.707107 0.000000
-0.000000 -0.707107 0.707107
0.000000 0.707107 -0.707107
-0.707107 -0.707107 0.000000
0.707107 0.707107 -0.000000
-0.707107 0.000000 -0.707107
0.707107 -0.707107 -0.000000
-0.000000 0.707107 0.707107
-0.000000 -0.707107 -0.707107
0.000000 0.707107 0.707107
0.707107 -0.707107 -0.000000
-0.707107 0.707107 0.000000
-0.707107 -0.000000 0.707107
0.707107 0.000000 -0.707107
0.707107 0.000000 -0.707107
-0.707107 -0.000000 0.707107
0.707107 -0.707107 -0.000000
-0.707107 0.707107 0.000000
-0.707107 0.707107 0.000000
0.707107 -0.707107 -0.000000
-0.000000 -0.707107 0.707107
0.000000 0.707107 -0.707107
0.000000 -0.707107 0.707107
-0.000000 0.707107 -0.707107
0.707107 -0.000000 -0.707107
-0.707107 0.000000 0.707107
0.707107 -0.000000 -0.707107
-0.707107 0.000000 0.707107
0.707107 -0.000000 -0.707107
0.707107 -0.000000 -0.707107
-0.707107 0.000000 0.707107
-0.707107 0.000000 -0.707107
0.707107 -0.000000 0.707107
-0.707107 -0.000000 0.707107
0.707107 0.000000 -0.707107
-0.707107 -0.000000 -0.707107
0.000000 -0.707107 0.707107
0.707107 0.707107 0.000000
-0.707107 0.000000 -0.707107
0.707107 -0.000000 0.707107
0.707107 0.000000 -0.707107
-0.707107 -0.000000 0.707107
-0.707107 -0.707107 -0.000000
0.707107 0.707107 0.000000
-0.707107 -0.000000 -0.707107
0.707107 0.000000 0.707107
-0.707107 -0.000000 0.707107
-0.000000 -0.707107 -0.707107
0.707107 0.707107 0.000000
0.000000 -0.707107 -0.707107
-0.000000 0.707107 0.707107
0.000000 0.707107 -0.707107
0.707107 -0.707107 0.000000
-0.707107 -0.000000 0.707107
0.707107 -0.000000 -0.707107
-0.707107 0.000000 0.707107
0.707107 -0.707107 -0.000000
-0.707107 0.707107 0.000000
-0.707107 -0.000000 -0.707107
0.707107 0.000000 0.707107
0.707107 -0.707107 0.000000
-0.707107 0.707107 -0.000000
-0.707107 0.000000 -0.707107
0.707107 -0.000000 0.707107
0.707107 -0.000000 0.707107
-0.707107 -0.000000 -0.707107
0.707107 0.000000 0.707107
-0.707107 -0.000000 -0.707107
0.707107 0.000000 0.707107
0.707107 -0.707107 0.000000
-0.000000 -0.707107 0.707107
-0.000000 -0.000000 -1.414214
0.000000 0.707107 0.707107
-0.707107 -0.000000 0.707107
0.707107 -0.000000 -0.707107
0.707107 -0.000000 -0.707107
0.707107 0.707107 0.000000
-0.707107 -0.707107 -0.000000
-0.707107 0.000000 -0.707107
0.707107 -0.000000 0.707107
-0.707107 0.000000 0.707107
0.707107 -0.000000 -0.707107
-0.707107 -0.707107 0.000000
0.707107 0.707107 -0.000000
-0.707107 0.000000 0.707107
0.707107 -0.000000 -0.707107
0.000000 0.707107 0.707107
-0.000000 -0.707107 -0.707107
0.707107 -0.707107 -0.000000
-0.707107 0.707107 0.000000
-0.707107 -0.000000 -0.707107
0.707107 0.000000 0.707107
0.707107 0.000000 0.707107
-0.707107 0.000000 -0.707107
0.707107 0.707107 -0.000000
-0.707107 -0.707107 0.000000
0.000000 0.707107 0.707107
-0.000000 -0.707107 -0.707107
0.707107 0.707107 -0.000000
-0.707107 0.000000 -0.707107
-0.000000 -0.707107 0.707107
0.707107 -0.000000 -0.707107
0.000000 -0.707107 0.707107
-0.707107 -0.000000 -0.707107
-0.000000 0.707107 0.707107
0.707107 -0.707107 -0.000000
-0.707107 0.707107 -0.000000
0.707107 0.000000 -0.707107
-0.707107 -0.000000 0.707107
-0.707107 -0.000000 -0.707107
0.707107 0.000000 0.707107
0.000000 0.707107 0.707107
0.000000 0.707107 0.707107
0.707107 -0.000000 -0.707107
-0.707107 -0.707107 0.000000
0.000000 0.707107 0.707107
-0.000000 -0.707107 -0.707107
-0.707107 0.000000 0.707107
0.707107 -0.000000 -0.707107
-0.000000 -0.707107 0.707107
0.707107 0.000000 -0.707107
-0.707107 0.707107 -0.000000
0.707107 -0.707107 -0.000000
-0.707107 0.707107 0.000000
-0.000000 -0.707107 0.707107
0.000000 0.707107 -0.707107
0.707107 0.707107 0.000000
-0.707107 -0.707107 -0.000000
0.707107 -0.707107 0.000000
-0.707107 0.707107 0.000000
0.707107 0.707107 0.000000
-0.707107 -0.707107 -0.000000
-0.707107 0.000000 -0.707107
0.707107 -0.000000 0.707107
0.707107 -0.707107 0.000000
0.707107 -0.707107 0.000000
0.707107 -0.000000 0.707107
-0.707107 0.000000 -0.707107
0.707107 0.000000 0.707107
-0.707107 -0.000000 -0.707107
-0.000000 0.707107 0.707107
0.000000 -0.707107 -0.707107
0.707107 0.000000 -0.707107
0.000000 -0.707107 -0.707107
-1.414214 0.707107 0.707107
0.707107 -0.000000 0.707107
-0.000000 0.707107 0.707107
0.000000 -0.707107 -0.707107
0.000000 -0.707107 0.707107
-0.000000 0.707107 -0.707107
0.707107 0.000000 -0.707107
-0.707107 -0.000000 0.707107
-0.707107 0.000000 -0.707107
0.707107 -0.000000 0.707107
-0.707107 -0.707107 0.000000
0.707107 0.707107 -0.000000
-0.707107 0.000000 -0.707107
0.707107 -0.000000 0.707107
-0.707107 -0.000000 -0.707107
0.707107 0.000000 0.707107
0.707107 0.000000 0.707107
0.707107 0.000000 -0.707107
-0.707107 -0.000000 0.707107
0.707107 -0.707107 0.000000
-0.707107 0.707107 -0.000000
-0.707107 0.707107 0.000000
-0.000000 -0.707107 -0.707107
0.707107 -0.000000 0.707107
0.000000 -0.707107 0.707107
-0.000000 0.707107 -0.707107
-0.707107 -0.707107 0.000000
-0.000000 0.707107 -0.707107
0.707107 -0.000000 0.707107
-0.707107 0.000000 0.707107
0.707107 -0.000000 -0.707107
-0.707107 -0.707107 0.000000
0.707107 0.707107 -0.000000
-0.707107 -0.707107 -0.000000
0.707107 0.707107 0.000000
-1.414214 1.414214 -0.000000
1.414214 -0.707107 0.707107
0.000000 -0.707107 -0.707107
0.707107 0.000000 -0.707107
-0.707107 -0.000000 0.707107
-0.707107 0.707107 -0.000000
0.707107 -0.707107 0.000000
0.000000 0.707107 0.707107
-0.000000 -0.707107 -0.707107
-0.707107 -0.707107 -0.000000
0.707107 0.707107 0.000000
0.000000 -0.707107 0.707107
-0.000000 0.707107 -0.707107
0.707107 0.707107 -0.000000
-0.707107 -0.707107 0.000000
-0.707107 0.000000 0.707107
0.707107 -0.000000 -0.707107
-0.707107 0.000000 0.707107
0.707107 -0.000000 -0.707107
-0.000000 0.707107 0.707107
0.000000 -0.707107 -0.707107
-0.707107 -0.000000 -0.707107
0.707107 0.000000 0.707107
0.000000 0.707107 0.707107
-0.000000 -0.707107 -0.707107
-0.707107 0.000000 0.707107
0.707107 -0.000000 -0.707107
-0.707107 0.000000 0.707107
0.707107 -0.000000 -0.707107
0.707107 -0.707107 0.000000
-0.707107 0.707107 0.000000
0.707107 -0.000000 0.707107
-0.707107 0.000000 -0.707107
-0.707107 0.707107 -0.000000
0.707107 -0.707107 0.000000
-0.000000 0.707107 -0.707107
0.707107 0.000000 0.707107
-0.707107 -0.707107 0.000000
0.707107 -0.000000 0.707107
-0.707107 0.000000 -0.707107
-0.707107 0.000000 0.707107
0.707107 0.000000 -0.707107
-0.000000 -0.707107 -0.707107
0.707107 -0.000000 0.707107
0.000000 0.707107 -0.707107
-0.707107 0.000000 0.707107
-0.707107 0.000000 -0.707107
0.707107 -0.000000 0.707107
-0.707107 -0.000000 0.707107
0.707107 0.000000 -0.707107
0.707107 0.000000 -0.707107
0.707107 -0.707107 -0.000000
-0.707107 0.707107 0.000000
0.000000 0.707107 0.707107
-0.000000 -0.707107 -0.707107
-0.000000 -0.707107 -0.707107
-0.000000 0.707107 0.707107
0.000000 0.707107 0.707107
-0.000000 -0.707107 -0.707107
-0.707107 0.707107 0.000000
0.707107 -0.707107 -0.000000
-0.000000 0.707107 0.707107
-0.000000 -0.707107 -0.707107
0.000000 0.707107 0.707107
-0.000000 0.707107 0.707107
0.000000 -0.707107 -0.707107
0.707107 -0.707107 0.000000
-0.707107 0.707107 -0.000000
0.707107 0.707107 -0.000000
-0.707107 -0.707107 0.000000
0.000000 -0.707107 -0.707107
-0.000000 0.707107 0.707107
-0.000000 -0.707107 -0.707107
0.000000 0.707107 0.707107
-0.000000 0.707107 -0.707107
0.000000 -0.707107 0.707107
0.707107 -0.000000 0.707107
-0.707107 0.000000 -0.707107
0.707107 0.707107 0.000000
-0.707107 -0.707107 -0.000000
-0.000000 0.707107 0.707107
0.000000 -0.707107 -0.707107
0.000000 0.707107 0.707107
-0.000000 -0.707107 -0.707107
0.707107 0.000000 0.707107
-0.707107 -0.000000 -0.707107
-0.707107 -0.000000 -0.707107
0.707107 0.000000 0.707107
0.707107 -0.000000 0.707107
-0.707107 0.000000 -0.707107
0.000000 -0.707107 -0.707107
0.000000 0.707107 -0.707107
-0.000000 -0.707107 0.707107
0.707107 -0.000000 0.707107
-0.707107 -0.000000 -0.707107
-0.000000 -0.707107 -0.707107
0.707107 0.000000 0.707107
-0.707107 0.707107 0.000000
0.000000 -0.707107 -0.707107
-0.707107 0.000000 0.707107
0.707107 0.707107 -0.000000
0.707107 0.000000 -0.707107
-0.707107 -0.000000 0.707107
0.000000 0.707107 0.707107
-0.000000 -0.707107 -0.707107
-0.707107 0.000000 -0.707107
0.707107 -0.000000 -0.707107
0.000000 0.000000 1.414214
-0.707107 0.707107 0.000000
-0.707107 0.707107 0.000000
0.707107 0.000000 0.707107
0.707107 0.000000 0.707107
-0.707107 0.000000 -0.707107
0.707107 -0.000000 0.707107
-0.707107 -0.707107 -0.000000
-0.707107 -0.707107 -0.000000
0.707107 0.707107 0.000000
-0.707107 0.000000 0.707107
0.707107 -0.000000 -0.707107
0.707107 0.707107 0.000000
-0.707107 -0.707107 -0.000000
-0.000000 -0.707107 -0.707107
0.707107 -0.000000 -0.707107
0.000000 0.707107 0.707107
-0.707107 0.000000 0.707107
-0.707107 -0.000000 0.707107
0.000000 0.707107 0.707107
0.707107 -0.707107 -0.000000
0.000000 0.000000 -1.414214
-0.000000 -0.707107 -0.707107
0.000000 0.707107 0.707107
0.707107 0.000000 -0.707107
-0.707107 -0.707107 -0.000000
-0.000000 0.707107 0.707107
-0.707107 -0.707107 0.000000
0.707107 0.707107 -0.000000
-0.000000 -0.707107 0.707107
0.000000 0.707107 -0.707107
-0.707107 -0.000000 0.707107
-0.707107 -0.000000 -0.707107
0.707107 0.000000 0.707107
-0.707107 -0.707107 -0.000000
0.707107 0.707107 -0.000000
-0.707107 0.000000 -0.707107
0.707107 -0.000000 0.707107
-0.707107 0.000000 -0.707107
0.707107 -0.000000 0.707107
0.707107 -0.707107 -0.000000
-0.707107 0.707107 -0.000000
0.000000 0.707107 0.707107
-0.000000 -0.707107 -0.707107
-0.707107 0.000000 0.707107
0.707107 -0.000000 -0.707107
0.000000 0.707107 -0.707107
-0.000000 -0.707107 0.707107
0.000000 -0.707107 -0.707107
0.707107 0.000000 0.707107
-0.707107 0.707107 -0.000000
-0.707107 0.707107 0.000000
0.707107 -0.707107 -0.000000
0.707107 -0.707107 0.000000
-0.707107 0.707107 -0.000000
-0.707107 0.000000 0.707107
0.707107 -0.000000 -0.707107
-0.707107 0.000000 0.707107
-0.707107 0.000000 0.707107
0.707107 -0.000000 -0.707107
0.000000 0.707107 -0.707107
-0.000000 -0.707107 0.707107
-0.707107 0.707107 0.000000
0.707107 -0.707107 -0.000000
-0.000000 -0.707107 0.707107
0.000000 0.707107 -0.707107
-0.000000 -0.707107 -0.707107
0.000000 0.707107 0.707107
-0.707107 0.000000 -0.707107
0.707107 0.707107 -0.000000
0.000000 -0.707107 0.707107
0.000000 -0.707107 -0.707107
-0.000000 0.707107 0.707107
0.707107 0.000000 -0.707107
-0.707107 -0.000000 0.707107
-0.707107 0.000000 0.707107
0.707107 -0.000000 -0.707107
-0.000000 0.707107 0.707107
0.000000 -0.707107 -0.707107
-0.000000 0.707107 0.707107
0.000000 -0.707107 -0.707107
0.707107 -0.000000 -0.707107
-0.707107 0.000000 0.707107
-0.707107 0.000000 0.707107
-0.707107 0.000000 -0.707107
0.707107 -0.000000 0.707107
0.000000 -0.707107 -0.707107
-0.000000 0.707107 0.707107
-0.707107 0.000000 -0.707107
0.707107 -0.000000 0.707107
0.707107 -0.000000 -0.707107
-0.707107 0.000000 0.707107
0.707107 -0.707107 0.000000
-0.707107 0.707107 -0.000000
0.707107 -0.707107 -0.000000
-0.707107 0.707107 0.000000
0.707107 -0.000000 -0.707107
-0.707107 0.000000 0.707107
0.000000 -0.707107 0.707107
-0.000000 0.707107 -0.707107
-0.000000 -0.707107 0.707107
0.000000 0.707107 -0.707107
-0.707107 0.000000 -0.707107
0.000000 -0.707107 0.707107
0.707107 0.707107 0.000000
0.707107 0.000000 0.707107
-0.707107 -0.000000 -0.707107
-0.000000 -0.707107 -0.707107
0.707107 0.000000 -0.707107
-0.707107 -0.000000 0.707107
0.000000 0.707107 0.707107
-0.000000 -0.707107 0.707107
-0.000000 -0.707107 0.707107
-0.000000 0.707107 0.707107
0.000000 0.707107 -0.707107
0.000000 -0.707107 -0.707107
-0.707107 -0.707107 0.000000
-0.000000 -0.707107 -0.707107
0.000000 0.707107 0.707107
-0.000000 0.707107 0.707107
0.000000 -0.707107 -0.707107
0.707107 -0.000000 0.707107
-0.707107 0.000000 -0.707107
0.707107 0.000000 -0.707107
-0.707107 -0.000000 0.707107
-0.000000 -0.707107 0.707107
0.000000 0.707107 -0.707107
0.000000 -0.707107 -0.707107
-0.000000 0.707107 0.707107
0.707107 -0.707107 0.000000
-0.707107 0.707107 -0.000000
-0.707107 -0.000000 -0.707107
0.707107 0.000000 0.707107
0.707107 0.707107 -0.000000
-0.707107 -0.707107 0.000000
0.000000 0.707107 -0.707107
-0.000000 -0.707107 0.707107
0.000000 -0.707107 0.707107
0.000000 -0.707107 0.707107
-0.000000 0.707107 -0.707107
0.000000 0.707107 0.707107
0.000000 -0.707107 -0.707107
-0.707107 -0.000000 -0.707107
0.707107 0.000000 0.707107
0.707107 0.000000 0.707107
-0.000000 0.707107 -0.707107
0.000000 -0.707107 0.707107
0.000000 0.707107 0.707107
-0.000000 -0.707107 -0.707107
0.000000 -0.707107 0.707107
-0.000000 0.707107 -0.707107
-0.000000 -0.707107 -0.707107
0.000000 0.707107 0.707107
-0.707107 0.000000 0.707107
0.707107 -0.000000 -0.707107
-0.707107 -0.000000 0.707107
0.707107 0.000000 -0.707107
0.707107 0.707107 -0.000000
-0.707107 -0.707107 0.000000
0.000000 0.707107 -0.707107
-0.707107 0.000000 0.707107
0.707107 -0.707107 -0.000000
-0.707107 0.707107 0.000000
0.707107 -0.707107 -0.000000
-0.707107 0.707107 0.000000
0.707107 0.000000 -0.707107
-0.000000 -0.707107 0.707107
-0.000000 -0.707107 -0.707107
0.000000 0.707107 0.707107
-0.000000 -0.707107 0.707107
0.000000 0.707107 -0.707107
0.000000 0.707107 0.707107
-0.000000 -0.707107 -0.707107
0.707107 -0.000000 -0.707107
-0.707107 0.000000 -0.707107
-0.000000 -0.000000 1.414214
0.707107 -0.707107 0.000000
-0.707107 0.707107 -0.000000
-0.707107 -0.000000 -0.707107
0.707107 0.000000 0.707107
0.000000 0.707107 -0.707107
-0.000000 -0.707107 0.707107
0.000000 0.707107 0.707107
-0.000000 -0.707107 -0.707107
0.707107 -0.000000 0.707107
-0.707107 0.000000 -0.707107
0.000000 -0.707107 -0.707107
-0.000000 0.707107 0.707107
-0.707107 0.000000 0.707107
0.707107 -0.000000 -0.707107
0.707107 0.000000 -0.707107
0.000000 0.707107 0.707107
-0.000000 -0.707107 -0.707107
0.000000 -0.707107 0.707107
-0.000000 0.707107 -0.707107
0.000000 0.707107 0.707107
-0.000000 -0.707107 -0.707107
-0.000000 1.414214 -0.000000
-0.000000 -0.707107 0.707107
0.000000 -0.707107 -0.707107
-0.000000 -0.707107 -0.707107
0.000000 0.707107 0.707107
-0.707107 -0.707107 0.000000
0.707107 0.707107 -0.000000
0.000000 0.707107 0.707107
-0.000000 -0.707107 -0.707107
-0.707107 -0.707107 0.000000
0.000000 0.707107 0.707107
0.707107 0.000000 -0.707107
-0.707107 -0.000000 0.707107
-0.707107 -0.000000 -0.707107
0.707107 0.000000 0.707107
-0.707107 0.000000 0.707107
0.707107 -0.000000 -0.707107
-0.707107 0.000000 -0.707107
0.707107 -0.000000 0.707107
-0.000000 0.707107 -0.707107
0.000000 -0.707107 0.707107
0.000000 0.707107 0.707107
-0.000000 -0.707107 -0.707107
-0.707107 0.707107 0.000000
0.707107 -0.707107 -0.000000
-0.707107 0.000000 -0.707107
0.707107 -0.000000 0.707107
0.000000 -0.707107 -0.707107
0.000000 0.707107 0.707107
0.707107 -0.000000 -0.707107
-0.707107 0.000000 0.707107
-0.707107 -0.000000 -0.707107
0.707107 0.000000 0.707107
-0.707107 0.707107 -0.000000
0.707107 -0.707107 0.000000
-0.707107 0.000000 -0.707107
0.707107 -0.000000 0.707107
0.707107 -0.707107 0.000000
-0.707107 0.707107 -0.000000
-0.000000 0.707107 -0.707107
0.000000 -0.707107 0.707107
-0.000000 -0.707107 -0.707107
0.000000 0.707107 0.707107
-0.000000 -0.707107 0.707107