# vtk DataFile Version 3.0
Configuration exported from OpenDiS
ASCII
DATASET UNSTRUCTURED_GRID
POINTS 38634 FLOAT
-29412.000000 -29412.000000 -29412.000000
29412.000000 -29412.000000 -29412.000000
-29412.000000 29412.000000 -29412.000000
-29412.000000 -29412.000000 29412.000000
29412.000000 29412.000000 -29412.000000
29412.000000 -29412.000000 29412.000000
-29412.000000 29412.000000 29412.000000
29412.000000 29412.000000 29412.000000
-5537.003949 -1258.760465 15604.747869
-5837.404005 -375.241521 15021.628981
-5537.003949 -1258.760465 15604.747869
-5274.998125 -2026.996212 16110.977791
25269.929246 -17179.078889 6559.867635
25515.336469 -17992.469860 5991.860892
25269.929246 -17179.078889 6559.867635
24698.646297 -16069.457693 7098.205883
20293.657720 9323.775794 25020.716747
20293.657720 8487.440444 24181.192192
20293.657720 9323.775794 25020.716747
20293.657720 9921.889452 25616.335327
-10606.415009 6939.242478 23076.880093
-11503.439200 5999.258706 23033.920512
-10606.415009 6939.242478 23076.880093
-9766.038803 7685.691884 22982.953445
13975.836413 -15230.077013 -18801.452313
14626.813412 -16259.909128 -19180.307428
13975.836413 -15230.077013 -18801.452313
13270.709879 -14233.769219 -18510.271052
-12516.229069 -3165.222319 -21525.995813
-12783.256346 -3165.222319 -21793.023090
-12516.229069 -3165.222319 -21525.995813
-11808.959001 -3165.222319 -20818.725746
-25188.514885 19169.033218 -27430.657551
-24726.482312 19693.220811 -27430.657551
-25188.514885 19169.033218 -27430.657551
-26098.267458 18175.413038 -27430.657551
22289.600578 24989.417511 28019.307104
21567.456530 25711.561559 28019.307104
22289.600578 24989.417511 28019.307104
23097.918111 24181.099978 28019.307104
9509.378852 7580.556899 -28928.804508
8731.543385 8358.374061 -28928.804508
9509.378852 7580.556899 -28928.804508
9969.643173 7126.568555 -28928.804508
3812.492642 25638.080578 -1011.654688
4677.836387 25638.080578 -1876.998434
3812.492642 25638.080578 -1011.654688
2958.309438 25638.080578 -156.615026
-20437.457131 25231.684842 -10156.706065
-19811.093857 25069.105110 -9692.922523
-20437.457131 25231.684842 -10156.706065
-21888.386966 25911.473434 -10927.847310
-25326.594800 8895.540856 6104.833733
-25357.032954 8895.540856 6074.487675
-25326.594800 8895.540856 6104.833733
-25409.277574 9651.678095 5431.379268
-24245.895959 14701.510489 -15135.568575
-23608.083455 13540.018457 -15659.248103
-24245.895959 14701.510489 -15135.568575
-24676.644539 15449.762719 -14818.064925
1982.126350 -8478.909295 24456.601610
3208.703135 -9637.903894 24524.183796
1982.126350 -8478.909295 24456.601610
1412.118304 -8134.817408 24230.685450
-7804.932608 26768.878947 7898.075709
-6628.252575 26605.241286 8911.118082
-7804.932608 26768.878947 7898.075709
-9402.393629 27436.536548 6968.272290
25640.647714 -4002.644280 -12588.927325
26542.313424 -5081.703616 -12766.320952
25640.647714 -4002.644280 -12588.927325
24556.630494 -3170.349431 -12840.649696
19735.483786 28521.571508 29107.633219
20945.809927 27716.736277 28702.142309
19735.483786 28521.571508 29107.633219
18751.139079 29201.549439 29411.999995
18751.139079 29201.549439 -29411.999994
18680.663349 29250.233544 -29390.208380
25719.321831 25723.774600 23108.299676
26727.635895 25686.859675 22136.902157
25719.321831 25723.774600 23108.299676
25332.639448 25498.998176 23719.756863
26869.564716 21421.610582 2124.066306
26763.984639 22616.237860 3424.272457
26869.564716 21421.610582 2124.066306
26447.560629 20328.865312 1453.325123
-25967.827109 -10416.983940 -22533.256549
-25372.204278 -10653.216704 -22173.866481
-25967.827109 -10416.983940 -22533.256549
-25629.552798 -10832.389551 -23286.936471
-25967.827109 -10416.983940 -22533.256549
-25810.538303 -9952.573391 -22226.134806
-27102.305419 27659.045206 20924.398827
-27599.160678 27810.919332 20579.417695
-27102.305419 27659.045206 20924.398827
-26280.246027 27383.395897 21470.808911
-18211.153868 13631.895845 -6690.880879
-17739.474852 13878.939753 -6466.245771
-18211.153868 13631.895845 -6690.880879
-18613.705212 13341.575901 -6803.112279
17583.434352 9185.522215 15703.085938
16916.429733 9079.946817 14930.505921
17583.434352 9185.522215 15703.085938
18051.593486 8717.363081 15703.085938
17583.434352 9185.522215 15703.085938
17954.921469 9635.248146 14881.872890
-26268.481125 24411.950836 14153.716398
-26921.872548 24617.853262 14601.205396
-26268.481125 24411.950836 14153.716398
-25605.558600 24189.344950 13713.399759
-8986.026040 -2187.329340 20538.761505
-9055.814686 -1871.963338 20153.606857
-8986.026040 -2187.329340 20538.761505
-9112.558927 -1708.446830 20891.111128
-8986.026040 -2187.329340 20538.761505
-8884.452832 -2848.382197 21301.387569
-8986.026040 -2187.329340 20538.761505
-8672.490904 -3060.792763 19978.833217
-5989.857586 15271.380551 -10944.960476
-5503.353412 15425.522444 -10612.598195
-5989.857586 15271.380551 -10944.960476
-6421.029300 15016.101418 -11120.853057
15601.636552 26359.708062 -441.793848
16639.186174 26832.234950 123.228884
15601.636552 26359.708062 -441.793848
14450.696353 25619.177272 -852.203258
-2587.981596 -7867.117810 20498.285150
-3264.350146 -7632.690812 20056.343598
-2587.981596 -7867.117810 20498.285150
-1194.730670 -8135.185033 21623.468852
-20392.130424 -22258.647019 2384.360569
-19811.094519 -22912.030447 1149.941236
-20392.130424 -22258.647019 2384.360569
-21129.860521 -22101.846774 3278.890911
5555.472138 -12552.035865 -24543.775440
5575.274532 -12163.427321 -24135.364501
5555.472138 -12552.035865 -24543.775440
5577.145830 -13345.781328 -25315.847211
4718.872750 -6328.368772 12506.157266
4718.872750 -5981.069258 12853.457686
4718.872750 -6328.368772 12506.157266
4718.872750 -7308.152199 11537.206266
-17654.826798 -24275.363870 12237.159062
-17060.879720 -24621.388801 11297.187053
-17654.826798 -24275.363870 12237.159062
-18461.162502 -24026.939761 13291.918875
-1225.457480 14588.863317 23385.579524
-1786.868890 15566.012624 22969.764554
-1225.457480 14588.863317 23385.579524
-886.240439 15080.553606 23538.358716
-3336.280953 -23761.702646 -13246.409472
-3520.059412 -23458.936794 -13127.444604
-3336.280953 -23761.702646 -13246.409472
-2610.651003 -23732.068587 -12491.145463
-3336.280953 -23761.702646 -13246.409472
-3778.624420 -23238.545488 -14211.910098
5918.972185 25075.139884 21263.997119
7312.331108 24423.869549 22006.085708
5918.972185 25075.139884 21263.997119
5651.210137 24028.893379 22042.481576
5918.972185 25075.139884 21263.997119
5949.907806 25696.419007 20580.456184
-13280.645264 11197.811237 -22846.621940
-14674.488812 12590.743791 -22846.621940
-13280.645264 11197.811237 -22846.621940
-12546.365336 10096.775668 -22479.866299
-13280.645264 11197.811237 -22846.621940
-12991.389508 10871.163662 -22230.718609
-6471.551528 12293.350233 12739.838294
-6068.611285 11527.553575 11571.101393
-6471.551528 12293.350233 12739.838294
-6962.480477 12757.279605 13694.696614
1567.233507 -4659.239406 19927.645843
2020.558294 -5179.980645 20854.385632
1567.233507 -4659.239406 19927.645843
1355.025306 -4385.806548 19505.106435
-25041.530391 16590.517588 28954.830648
-25367.750467 16459.568316 29411.999996
-25367.750467 16459.568316 -29411.999992
-25517.583115 16399.423409 -29202.022449
-25041.530391 16590.517588 28954.830648
-24902.870768 16909.027315 29411.999997
-24902.870768 16909.027315 -29411.999991
-24742.817422 17276.679751 -28884.294220
-25041.530391 16590.517588 28954.830648
-25200.998258 16322.565720 28527.410914
-25041.530391 16590.517588 28954.830648
-24318.229908 16701.861529 28120.186224
-23722.981001 -22035.995242 26916.578257
-24130.561369 -21291.085324 27253.907807
-23722.981001 -22035.995242 26916.578257
-23470.552953 -22908.242726 26296.758821
2262.178555 -18762.773714 4425.353568
2457.235322 -19224.835949 4692.359037
2262.178555 -18762.773714 4425.353568
2093.937029 -18315.435101 4146.256482
-11967.370269 -4137.326535 26556.723729
-11520.756342 -3458.597097 26788.839241
-11967.370269 -4137.326535 26556.723729
-12523.111546 -4677.175375 26572.616166
-27273.889357 -5758.211243 -1321.767343
-27273.889357 -4810.504337 -382.800533
-27273.889357 -5758.211243 -1321.767343
-27273.889357 -6639.911648 -2200.218538
-18722.603874 -26800.973884 26105.682052
-20032.582705 -25809.638636 25787.038469
-18722.603874 -26800.973884 26105.682052
-17836.658418 -27662.879769 26144.208057
-18539.432808 -22111.471983 -10396.538491
-17903.076207 -22111.471983 -11032.878308
-18539.432808 -22111.471983 -10396.538491
-19195.475138 -22111.471983 -9740.494484
-18539.432808 -22111.471983 -10396.538491
-17438.496744 -21595.259718 -10981.260084
1690.427755 28304.099310 13389.582747
632.493766 27381.776209 13253.971859
1690.427755 28304.099310 13389.582747
2626.357804 29059.684046 13569.928060
4857.092687 -25698.060619 14611.891182
4857.092687 -26782.820195 13526.327961
4857.092687 -25698.060619 14611.891182
4857.092687 -25184.948888 15123.987812
-16101.829005 -22424.180860 26483.992428
-16563.387959 -22394.523795 26975.208446
-16101.829005 -22424.180860 26483.992428
-15375.686459 -22472.569249 25709.461493
27175.021978 25187.498844 -12323.229260
28092.588054 24279.413977 -12323.229260
27175.021978 25187.498844 -12323.229260
26251.528638 26101.449728 -12323.229260
3211.620135 9716.423692 11397.060858
3316.152354 9982.370637 11767.540022
3211.620135 9716.423692 11397.060858
3010.955059 9075.231900 10555.203990
4775.496339 6279.656171 -3007.639685
3890.203130 5048.789511 -2662.066233
4775.496339 6279.656171 -3007.639685
5598.721848 7561.807656 -3466.565660
-28390.498328 27855.534904 -28908.575027
-27922.136186 27467.782120 -28052.460101
-28390.498328 27855.534904 -28908.575027
-28325.071585 28424.386624 -29412.000004
-28325.071585 28424.386624 29411.999985
-28286.651223 28758.431812 29116.375170
-28390.498328 27855.534904 -28908.575027
-28969.104514 27804.067244 -28278.501181
-21716.046637 -105.965646 17742.276732
-22646.001808 377.011198 17295.298405
-21716.046637 -105.965646 17742.276732
-20792.933946 -696.225158 18075.129910
[...]
CELL_DATA 19314
VECTORS Burgers FLOAT
0.000000 0.000000 0.000000
0.707107 -0.707107 -0.000000
-0.707107 0.707107 0.000000
0.707107 0.000000 0.707107
-0.707107 -0.000000 -0.707107
0.000000 -0.707107 0.707107
0.000000 0.707107 -0.707107
0.707107 0.000000 -0.707107
-0.707107 -0.000000 0.707107
0.000000 0.707107 0.707107
-0.000000 -0.707107 -0.707107
-0.707107 0.000000 0.707107
0.707107 -0.000000 -0.707107
0.707107 -0.707107 0.000000
-0.707107 0.707107 0.000000
-0.707107 -0.707107 0.000000
0.707107 0.707107 -0.000000
0.707107 0.707107 0.000000
-0.707107 -0.707107 -0.000000
-0.707107 0.000000 -0.707107
0.707107 0.000000 0.707107
-0.707107 -0.000000 -0.707107
0.707107 0.000000 0.707107
0.707107 0.000000 -0.707107
-0.707107 -0.000000 0.707107
0.000000 0.707107 0.707107
-0.000000 -0.707107 -0.707107
0.000000 -0.707107 -0.707107
-0.000000 0.707107 0.707107
0.000000 -0.707107 -0.707107
-0.000000 0.707107 0.707107
0.000000 0.707107 0.707107
-0.000000 -0.707107 -0.707107
-0.707107 0.707107 0.000000
0.707107 -0.707107 -0.000000
0.707107 -0.707107 -0.000000
-0.707107 0.707107 0.000000
0.707107 -0.707107 -0.000000
0.707107 0.000000 -0.707107
-0.707107 -0.000000 0.707107
0.000000 -0.707107 -0.707107
0.707107 0.707107 -0.000000
-0.707107 -0.000000 0.707107
-0.707107 0.000000 -0.707107
0.707107 -0.000000 0.707107
0.000000 -0.707107 0.707107
-0.000000 0.707107 -0.707107
-0.000000 0.707107 0.707107
-0.707107 -0.707107 0.000000
0.707107 0.000000 -0.707107
0.707107 -0.707107 0.000000
-0.707107 0.707107 -0.000000
-0.000000 -0.707107 0.707107
-0.000000 -0.707107 -0.707107
0.000000 0.707107 -0.707107
0.000000 0.707107 0.707107
-0.000000 -0.707107 0.707107
0.000000 0.707107 -0.707107
0.707107 -0.000000 0.707107
-0.707107 0.000000 -0.707107
-0.000000 0.707107 0.707107
0.000000 -0.707107 -0.707107
-0.707107 -0.707107 0.000000
0.707107 0.707107 -0.000000
0.000000 0.707107 0.707107
-0.000000 -0.707107 -0.707107
-0.000000 0.707107 -0.707107
-0.000000 -0.707107 0.707107
-0.707107 0.000000 0.707107
0.707107 -0.000000 -0.707107
-0.707107 0.000000 0.707107
0.707107 0.000000 -0.707107
0.000000 -0.707107 -0.707107
-0.707107 0.707107 0.000000
0.707107 0.000000 0.707107
0.707107 -0.000000 0.707107
-0.707107 -0.707107 -0.000000
0.000000 0.707107 -0.707107
-0.707107 -0.707107 -0.000000
0.000000 0.707107 -0.707107
0.707107 -0.000000 0.707107
0.000000 0.707107 0.707107
-0.000000 -0.707107 -0.707107
0.707107 0.707107 0.000000
-0.707107 -0.707107 -0.000000
-0.000000 0.707107 -0.707107
-0.000000 0.707107 -0.707107
-0.707107 0.000000 -0.707107
-0.707107 0.000000 -0.707107
0.707107 -0.000000 0.707107
0.000000 -0.707107 0.707107
0.000000 -0.707107 -0.707107
-0.000000 0.707107 0.707107
0.000000 0.707107 -0.707107
-0.000000 -0.707107 0.707107
-0.000000 -0.707107 -0.707107
0.000000 0.707107 0.707107
0.000000 0.707107 -0.707107
-0.000000 -0.707107 0.707107
-0.707107 -0.000000 -0.707107
0.707107 0.000000 0.707107
-0.707107 0.000000 -0.707107
0.000000 -0.000000 1.414214
0.707107 0.000000 -0.707107
0.707107 0.707107 0.000000
-0.707107 -0.707107 -0.000000
0.000000 -0.707107 0.707107
-0.000000 0.707107 -0.707107
0.707107 0.707107 0.000000
-0.707107 -0.707107 -0.000000
0.707107 0.707107 0.000000
-0.707107 -0.707107 -0.000000
-0.707107 0.000000 -0.707107
0.707107 -0.000000 0.707107
0.000000 -0.707107 0.707107
-0.000000 0.707107 -0.707107
0.707107 -0.000000 0.707107
-0.707107 -0.707107 0.000000
-0.707107 -0.707107 0.000000
-0.000000 0.707107 -0.707107
-0.707107 -0.000000 -0.707107
0.707107 0.000000 0.707107
-0.707107 -0.000000 -0.707107
0.707107 0.000000 0.707107
-0.000000 0.707107 0.707107
-0.000000 -0.707107 -0.707107
0.000000 0.707107 0.707107
-0.000000 -0.707107 -0.707107
-0.000000 0.707107 0.707107
0.000000 -0.707107 -0.707107
0.000000 0.707107 -0.707107
-0.000000 -0.707107 0.707107
0.000000 0.707107 0.707107
0.000000 0.707107 0.707107
-0.000000 -0.707107 -0.707107
0.707107 0.000000 -0.707107
-0.707107 -0.000000 0.707107
0.000000 -0.707107 0.707107
-0.000000 0.707107 -0.707107
-0.707107 -0.707107 0.000000
0.707107 0.707107 -0.000000
-0.707107 0.000000 -0.707107
-0.000000 0.707107 0.707107
0.707107 -0.707107 0.000000
0.000000 0.707107 0.707107
0.000000 -0.707107 -0.707107
-0.707107 -0.707107 -0.000000
0.707107 0.707107 0.000000
0.707107 -0.707107 -0.000000
-0.707107 0.707107 0.000000
0.707107 0.000000 0.707107
-0.707107 -0.000000 -0.707107
-0.000000 0.707107 -0.707107
0.000000 -0.707107 0.707107
0.000000 -0.707107 -0.707107
-0.707107 0.707107 -0.000000
0.707107 -0.000000 0.707107
0.000000 -0.707107 -0.707107
-0.000000 0.707107 0.707107
0.707107 -0.000000 0.707107
-0.707107 -0.000000 -0.707107
0.000000 -0.707107 -0.707107
-0.000000 0.707107 0.707107
0.707107 -0.707107 0.000000
-0.000000 0.707107 -0.707107
-0.707107 -0.000000 0.707107
0.000000 0.707107 -0.707107
-0.000000 -0.707107 0.707107
-0.707107 -0.000000 -0.707107
0.707107 0.000000 0.707107
-0.707107 0.707107 0.000000
0.707107 -0.707107 -0.000000
0.000000 -0.707107 -0.707107
-0.707107 0.707107 0.000000
0.707107 0.000000 0.707107
0.000000 -0.707107 0.707107
-0.707107 0.707107 0.000000
0.707107 0.000000 -0.707107
-0.707107 -0.000000 -0.707107
0.707107 0.000000 0.707107
0.707107 -0.000000 0.707107
-0.707107 0.000000 -0.707107
-0.000000 -0.707107 0.707107
0.000000 0.707107 -0.707107
0.000000 0.707107 -0.707107
-0.000000 -0.707107 0.707107
0.000000 0.707107 0.707107
-0.000000 -0.707107 -0.707107
-0.000000 -0.707107 0.707107
0.000000 0.707107 -0.707107
0.000000 0.707107 0.707107
0.000000 0.707107 0.707107
-0.000000 -0.707107 -0.707107
-0.707107 -0.000000 0.707107
0.707107 0.000000 -0.707107
0.707107 -0.707107 -0.000000
-0.707107 0.707107 0.000000
-0.000000 0.707107 0.707107
0.000000 -0.707107 -0.707107
-0.707107 0.707107 0.000000
0.707107 -0.707107 -0.000000
0.000000 0.707107 -0.707107
-0.000000 -0.707107 0.707107
-0.000000 0.707107 0.707107
0.707107 0.000000 -0.707107
-0.707107 -0.707107 0.000000
0.000000 0.707107 -0.707107
-0.000000 -0.707107 0.707107
-1.414214 0.000000 0.000000
0.707107 -0.707107 -0.000000
0.707107 0.707107 -0.000000
0.707107 -0.000000 -0.707107
0.707107 -0.000000 -0.707107
-0.707107 0.000000 0.707107
0.707107 0.000000 0.707107
-0.707107 -0.707107 0.000000
-0.000000 0.707107 -0.707107
-0.707107 -0.000000 -0.707107
0.707107 0.000000 0.707107
0.707107 -0.707107 0.000000
-0.707107 -0.000000 -0.707107
0.000000 0.707107 0.707107
-0.707107 0.000000 0.707107
0.707107 -0.000000 -0.707107
-0.707107 0.707107 -0.000000
0.707107 -0.707107 0.000000
-0.707107 -0.707107 -0.000000
0.707107 0.707107 0.000000
-0.707107 -0.000000 -0.707107
0.707107 0.000000 0.707107
-0.707107 0.000000 -0.707107
0.707107 -0.000000 0.707107
0.707107 -0.707107 -0.000000
-0.707107 0.707107 0.000000
0.707107 -0.000000 -0.707107
-0.707107 0.000000 0.707107
0.000000 0.707107 0.707107
-0.000000 -0.707107 -0.707107
0.707107 -0.707107 -0.000000
-0.707107 0.707107 0.000000
-0.707107 -0.707107 -0.000000
0.707107 0.707107 -0.000000
0.707107 -0.707107 0.000000
-0.707107 0.707107 -0.000000
0.000000 -0.707107 -0.707107
-0.000000 0.707107 0.707107
-0.707107 -0.000000 0.707107
0.707107 -0.000000 -0.707107
-0.707107 -0.707107 0.000000
0.000000 0.707107 0.707107
0.707107 0.000000 -0.707107
0.707107 0.000000 0.707107
-0.707107 -0.000000 -0.707107
-0.000000 -0.707107 0.707107
-0.000000 -0.000000 -1.414214
0.000000 0.707107 0.707107
-0.707107 -0.000000 0.707107
0.707107 -0.000000 -0.707107
0.707107 -0.000000 -0.707107
-0.707107 0.000000 0.707107
0.707107 -0.707107 -0.000000
-0.707107 0.707107 -0.000000
0.707107 0.707107 -0.000000
-0.000000 -0.707107 -0.707107
-0.707107 0.000000 0.707107
-0.707107 -0.707107 0.000000
0.707107 0.707107 -0.000000
-0.707107 0.000000 0.707107
0.707107 -0.000000 -0.707107
0.000000 0.707107 0.707107
-0.000000 -0.707107 -0.707107
0.707107 -0.707107 -0.000000
-0.707107 0.707107 0.000000
0.707107 0.000000 -0.707107
-0.707107 -0.000000 0.707107
-0.707107 0.000000 -0.707107
0.707107 0.000000 0.707107
0.707107 0.707107 -0.000000
-0.707107 -0.707107 0.000000
0.000000 -0.707107 0.707107
-0.000000 0.707107 -0.707107
-0.000000 -0.707107 0.707107
0.707107 0.707107 -0.000000
-0.707107 0.000000 -0.707107
0.000000 -0.707107 0.707107
-0.707107 0.707107 0.000000
0.707107 -0.000000 -0.707107
0.707107 -0.707107 -0.000000
-0.707107 0.707107 -0.000000
0.707107 0.000000 -0.707107
-0.707107 -0.000000 0.707107
-0.707107 -0.707107 0.000000
0.707107 0.707107 -0.000000
0.000000 0.707107 0.707107
0.707107 -0.000000 -0.707107
-0.707107 -0.707107 0.000000
0.000000 0.707107 0.707107
-0.000000 -0.707107 -0.707107
-0.707107 0.000000 0.707107
0.707107 -0.000000 -0.707107
-0.000000 -0.707107 0.707107
0.707107 0.000000 -0.707107
-0.707107 0.707107 -0.000000
-0.000000 0.707107 0.707107
0.000000 -0.707107 -0.707107
-0.000000 -0.707107 0.707107
0.000000 0.707107 -0.707107
0.707107 0.707107 0.000000
-0.707107 -0.707107 -0.000000
0.707107 -0.707107 0.000000
-0.707107 0.707107 0.000000
0.707107 0.707107 0.000000
-0.707107 -0.707107 -0.000000
-0.707107 0.000000 -0.707107
0.707107 -0.000000 0.707107
0.707107 -0.000000 0.707107
-0.000000 0.707107 0.707107
0.000000 -0.707107 -0.707107
0.707107 -0.000000 0.707107
-0.707107 0.000000 -0.707107
0.707107 0.000000 0.707107
-0.707107 -0.000000 -0.707107
-0.707107 -0.000000 -0.707107
0.707107 0.000000 0.707107
0.707107 0.000000 -0.707107
0.000000 -0.707107 -0.707107
-1.414214 0.707107 0.707107
0.707107 -0.000000 0.707107
-0.707107 0.000000 0.707107
0.707107 -0.000000 -0.707107
-0.000000 0.707107 0.707107
0.000000 -0.707107 -0.707107
-0.707107 0.707107 0.000000
-0.000000 -0.707107 -0.707107
0.707107 -0.000000 0.707107
0.707107 0.707107 -0.000000
-0.707107 -0.707107 0.000000
-0.707107 -0.707107 0.000000
0.707107 0.707107 -0.000000
-0.000000 -0.707107 0.707107
0.000000 0.707107 -0.707107
-0.707107 -0.000000 -0.707107
0.707107 0.000000 0.707107
0.707107 -0.000000 -0.707107
-0.707107 0.000000 0.707107
0.000000 0.707107 -0.707107
-0.000000 -0.707107 0.707107
-0.000000 -0.707107 -0.707107
0.707107 0.000000 0.707107
0.707107 0.000000 0.707107
-0.707107 -0.000000 -0.707107
0.000000 0.707107 0.707107
0.000000 -0.707107 -0.707107
-0.707107 0.707107 0.000000
0.707107 -0.707107 -0.000000
-0.707107 0.000000 0.707107
0.707107 -0.000000 -0.707107
-0.707107 -0.707107 -0.000000
0.707107 0.707107 0.000000
-0.707107 -0.000000 0.707107
-0.707107 1.414214 -0.707107
1.414214 -0.707107 0.707107
0.000000 -0.707107 -0.707107
0.707107 0.000000 -0.707107
-0.707107 -0.000000 0.707107
-0.707107 0.707107 -0.000000
0.707107 -0.707107 0.000000
-0.707107 0.000000 0.707107
0.707107 -0.000000 -0.707107
0.707107 -0.000000 0.707107
-0.707107 0.000000 -0.707107
-0.000000 -0.000000 1.414214
-0.000000 -0.000000 -1.414214
0.707107 0.707107 -0.000000
-0.707107 -0.707107 0.000000
-0.707107 0.000000 0.707107
0.707107 -0.000000 -0.707107
-0.000000 -0.707107 -0.707107
0.000000 0.707107 0.707107
-0.707107 -0.707107 -0.000000
0.707107 0.707107 0.000000
-0.707107 -0.000000 -0.707107
0.707107 0.000000 0.707107
-0.707107 0.000000 0.707107
0.707107 0.707107 0.000000
-0.000000 -0.707107 -0.707107
-0.707107 0.000000 0.707107
0.707107 -0.000000 -0.707107
-0.707107 0.707107 -0.000000
0.707107 -0.707107 0.000000
0.707107 -0.707107 0.000000
-0.707107 0.707107 0.000000
0.707107 -0.000000 0.707107
-0.707107 0.000000 -0.707107
0.707107 -0.707107 -0.000000
0.707107 -0.707107 0.000000
-0.707107 0.707107 -0.000000
0.000000 0.707107 0.707107
-0.000000 -0.707107 -0.707107
-0.707107 0.707107 0.000000
0.707107 -0.707107 -0.000000
0.707107 -0.000000 0.707107
-0.707107 0.707107 0.000000
-0.000000 -0.707107 -0.707107
-0.000000 0.707107 0.707107
0.000000 -0.707107 -0.707107
0.000000 -0.707107 -0.707107
-0.000000 -0.707107 0.707107
0.000000 0.707107 -0.707107
-0.000000 0.707107 0.707107
0.707107 -0.707107 -0.000000
0.707107 -0.707107 -0.000000
-0.707107 0.707107 0.000000
0.707107 0.707107 0.000000
0.000000 -0.707107 0.707107
-0.707107 -0.000000 -0.707107
-0.000000 -0.707107 -0.707107
-0.000000 0.707107 0.707107
-0.000000 0.707107 0.707107
0.000000 -0.707107 -0.707107
0.000000 0.707107 0.707107
-0.000000 -0.707107 -0.707107
-0.707107 -0.707107 0.000000
0.707107 0.707107 -0.000000
-0.707107 0.707107 -0.000000
0.707107 -0.707107 0.000000
0.707107 -0.707107 -0.000000
-0.707107 0.707107 0.000000
0.707107 -0.707107 0.000000
-0.707107 0.707107 -0.000000
0.707107 0.707107 -0.000000
-0.707107 -0.707107 0.000000
0.000000 0.707107 -0.707107
-0.000000 -0.707107 0.707107
-0.000000 -0.707107 -0.707107
0.000000 0.707107 0.707107
0.000000 -0.707107 -0.707107
-0.000000 0.707107 0.707107
-0.707107 -0.707107 0.000000
0.707107 0.707107 -0.000000
0.000000 -0.707107 0.707107
0.000000 -0.707107 0.707107
-0.000000 0.707107 -0.707107
-0.000000 0.707107 0.707107
0.000000 -0.707107 -0.707107
0.000000 0.707107 0.707107
-0.000000 -0.707107 -0.707107
0.707107 0.000000 0.707107
-0.707107 -0.000000 -0.707107
-0.000000 0.707107 0.707107
0.000000 -0.707107 -0.707107
0.707107 -0.000000 0.707107
-0.707107 0.000000 -0.707107
-0.707107 0.000000 0.707107
0.707107 -0.000000 -0.707107
0.000000 0.707107 -0.707107
-0.000000 -0.707107 0.707107
0.000000 0.707107 0.707107
-0.000000 -0.707107 -0.707107
-0.707107 0.707107 -0.000000
-0.000000 -0.707107 -0.707107
0.707107 0.000000 0.707107
-0.707107 0.000000 -0.707107
0.707107 -0.000000 0.707107
-0.000000 0.707107 0.707107
0.000000 -0.707107 -0.707107
0.000000 0.707107 0.707107
-0.000000 -0.707107 -0.707107
-0.707107 0.000000 -0.707107
0.707107 -0.000000 -0.707107
0.000000 0.000000 1.414214
-0.707107 0.707107 0.000000
0.707107 -0.707107 -0.000000
0.000000 0.707107 0.707107
-0.000000 -0.707107 -0.707107
0.000000 -0.707107 0.707107
0.000000 -0.707107 0.707107
-0.707107 -0.000000 -0.707107
-0.707107 -0.000000 -0.707107
0.707107 0.707107 0.000000
-0.707107 -0.707107 0.000000
0.707107 0.707107 -0.000000
0.000000 0.707107 0.707107
-0.000000 -0.707107 -0.707107
-0.707107 0.000000 0.707107
0.707107 -0.000000 -0.707107
0.707107 -0.000000 -0.707107
-0.707107 0.000000 0.707107
-0.000000 -0.707107 -0.707107
0.000000 0.707107 0.707107
0.000000 0.707107 -0.707107
-0.000000 -0.707107 0.707107
0.707107 0.000000 0.707107
-0.707107 -0.000000 -0.707107
-0.000000 -0.707107 -0.707107
0.000000 0.707107 0.707107
0.707107 -0.707107 0.000000
-0.707107 0.707107 -0.000000
-0.707107 -0.000000 0.707107
-0.000000 -0.707107 -0.707107
0.707107 0.707107 -0.000000
-0.000000 0.707107 -0.707107
0.000000 -0.707107 0.707107
-0.707107 0.000000 -0.707107
0.707107 -0.000000 0.707107
0.707107 0.000000 -0.707107
-0.707107 -0.000000 0.707107
0.000000 0.707107 -0.707107
-0.000000 -0.707107 0.707107
-0.707107 0.000000 0.707107
-0.707107 0.000000 0.707107
0.707107 -0.000000 -0.707107
0.000000 0.707107 0.707107
-0.000000 -0.707107 -0.707107
-0.707107 0.707107 -0.000000
0.000000 -0.707107 -0.707107
0.707107 0.000000 0.707107
-0.707107 0.707107 0.000000
0.707107 -0.707107 -0.000000
0.000000 -0.707107 0.707107
-0.000000 0.707107 -0.707107
0.707107 0.000000 -0.707107
-0.707107 -0.000000 0.707107
0.000000 -0.707107 0.707107
-0.000000 0.707107 -0.707107
0.000000 0.707107 -0.707107
-0.000000 -0.707107 0.707107
-0.707107 -0.000000 -0.707107
-0.707107 -0.000000 -0.707107
0.707107 0.000000 0.707107
-0.000000 -0.707107 0.707107
0.000000 0.707107 -0.707107
-0.000000 -0.707107 -0.707107
0.000000 0.707107 0.707107
-0.707107 0.000000 0.707107
0.707107 0.000000 -0.707107
0.000000 -0.707107 -0.707107
-0.000000 0.707107 0.707107
-0.707107 0.707107 0.000000
0.707107 -0.707107 -0.000000
-0.000000 0.707107 0.707107
0.000000 -0.707107 -0.707107
-0.707107 -0.000000 -0.707107
0.707107 0.000000 0.707107
0.000000 0.707107 -0.707107
-0.000000 -0.707107 0.707107
0.707107 -0.000000 -0.707107
-0.707107 0.000000 0.707107
-0.707107 0.000000 0.707107
-0.707107 0.000000 -0.707107
0.707107 -0.000000 0.707107
0.707107 -0.707107 0.000000
-0.707107 0.707107 0.000000
-0.707107 0.000000 0.707107
0.707107 -0.000000 -0.707107
0.000000 0.707107 0.707107
-0.000000 -0.707107 -0.707107
-0.707107 0.707107 0.000000
0.707107 -0.707107 -0.000000
0.707107 -0.707107 -0.000000
-0.707107 0.707107 0.000000
0.707107 -0.000000 -0.707107
-0.707107 0.000000 0.707107
0.707107 -0.707107 -0.000000
-0.707107 0.707107 0.000000
-0.707107 -0.000000 0.707107
0.707107 0.000000 -0.707107
0.000000 -0.707107 0.707107
-0.707107 0.000000 -0.707107
0.707107 0.707107 0.000000
0.707107 0.000000 0.707107
-0.707107 -0.000000 -0.707107
0.000000 -0.707107 0.707107
0.707107 -0.000000 -0.707107
-0.707107 0.707107 0.000000
-0.707107 -0.000000 0.707107
0.707107 0.000000 -0.707107
-0.707107 -0.707107 0.000000
0.707107 -0.000000 0.707107
-0.707107 0.000000 -0.707107
-0.000000 0.707107 0.707107
0.000000 -0.707107 -0.707107
-0.707107 -0.000000 0.707107
0.707107 0.000000 -0.707107
0.707107 0.000000 -0.707107
0.707107 -0.707107 0.000000
-0.707107 0.707107 -0.000000
-0.000000 -0.707107 0.707107
0.000000 0.707107 -0.707107
0.000000 -0.707107 -0.707107
-0.000000 0.707107 0.707107
-0.707107 0.707107 0.000000
-0.707107 -0.707107 -0.000000
0.707107 0.707107 0.000000
0.000000 0.707107 0.707107
-0.000000 -0.707107 -0.707107
0.707107 0.707107 0.000000
-0.707107 -0.707107 0.000000
-0.707107 0.000000 0.707107
0.707107 -0.000000 -0.707107
0.000000 0.707107 0.707107
-0.000000 -0.707107 -0.707107
0.707107 0.707107 0.000000
-0.707107 -0.707107 -0.000000
-0.000000 -0.707107 -0.707107
0.000000 0.707107 0.707107
0.000000 -0.707107 0.707107
-0.000000 0.707107 -0.707107
-0.707107 -0.000000 0.707107
0.707107 0.000000 -0.707107
0.707107 0.000000 0.707107
-0.707107 -0.000000 -0.707107
0.707107 0.000000 0.707107
-0.707107 -0.000000 -0.707107
0.707107 0.707107 -0.000000
-0.707107 -0.707107 0.000000
0.000000 0.707107 -0.707107
-0.707107 0.000000 0.707107
0.707107 -0.707107 -0.000000
-0.000000 0.707107 -0.707107
0.000000 -0.707107 0.707107
0.707107 -0.000000 -0.707107
-0.000000 -0.707107 -0.707107
0.000000 0.707107 0.707107
-0.707107 0.707107 -0.000000
0.707107 -0.707107 0.000000
-0.707107 0.000000 0.707107
0.707107 -0.000000 -0.707107
-0.707107 0.000000 -0.707107
0.707107 -0.000000 0.707107
0.000000 -0.707107 0.707107
0.000000 0.707107 -0.707107
0.707107 0.000000 -0.707107
-0.707107 -0.000000 0.707107
0.707107 0.707107 -0.000000
-0.707107 -0.707107 0.000000
-0.707107 0.707107 0.000000
0.707107 -0.707107 0.000000
0.000000 -0.707107 -0.707107
-0.000000 0.707107 0.707107
0.707107 0.000000 -0.707107
-0.707107 -0.000000 0.707107
-0.707107 -0.707107 -0.000000
0.707107 0.707107 0.000000
0.707107 0.000000 -0.707107
-0.707107 -0.000000 0.707107
0.000000 0.707107 0.707107
-0.000000 -0.707107 -0.707107
-0.707107 0.707107 -0.000000
0.707107 -0.707107 0.000000
0.000000 0.707107 0.707107
-0.000000 -0.707107 -0.707107
-0.000000 1.414214 -0.000000
-0.000000 -0.707107 0.707107
0.000000 -0.707107 -0.707107
0.000000 -0.707107 -0.707107
0.000000 -0.707107 -0.707107
-0.000000 0.707107 0.707107
-0.707107 -0.707107 0.000000
0.707107 0.707107 -0.000000
-0.000000 0.707107 0.707107
0.000000 -0.707107 -0.707107
0.000000 -0.707107 -0.707107
-0.000000 0.707107 0.707107
-0.707107 0.707107 0.000000
0.707107 -0.707107 -0.000000
-0.707107 -0.000000 -0.707107
0.707107 0.000000 0.707107
-0.707107 -0.707107 0.000000
0.707107 0.707107 -0.000000
-0.707107 0.000000 -0.707107
0.707107 -0.000000 0.707107
-0.000000 0.707107 -0.707107
0.000000 -0.707107 0.707107
0.000000 -0.707107 0.707107
0.000000 0.707107 0.707107
-0.000000 -0.707107 -0.707107
0.707107 0.000000 -0.707107
-0.707107 -0.000000 0.707107
0.707107 -0.000000 -0.707107
-0.707107 0.000000 0.707107
0.000000 -0.707107 -0.707107
0.000000 0.707107 0.707107
0.000000 -0.707107 -0.707107
-0.000000 0.707107 0.707107
-0.707107 -0.000000 -0.707107
0.707107 0.000000 0.707107
-0.707107 0.707107 -0.000000
-0.707107 0.000000 -0.707107
0.707107 -0.000000 0.707107
0.707107 -0.707107 0.000000
-0.707107 0.707107 -0.000000
0.707107 0.707107 0.000000
-0.707107 -0.000000 0.707107
0.707107 0.000000 -0.707107
-0.000000 -0.707107 0.707107
0.000000 0.707107 -0.707107
-0.707107 0.707107 -0.000000
0.707107 -0.707107 0.000000
0.707107 0.000000 -0.707107