# vtk DataFile Version 3.0
Configuration exported from OpenDiS
ASCII
DATASET UNSTRUCTURED_GRID
POINTS 35888 FLOAT
-29412.000000 -29412.000000 -29412.000000
29412.000000 -29412.000000 -29412.000000
-29412.000000 29412.000000 -29412.000000
-29412.000000 -29412.000000 29412.000000
29412.000000 29412.000000 -29412.000000
29412.000000 -29412.000000 29412.000000
-29412.000000 29412.000000 29412.000000
29412.000000 29412.000000 29412.000000
-5252.053031 -1406.199873 15467.236359
-5495.874437 -663.948539 14968.806431
-5252.053031 -1406.199873 15467.236359
-5014.734031 -2123.594816 15947.312301
-23776.916322 22212.315465 13861.786966
-22974.869102 21921.067441 13350.987771
-23776.916322 22212.315465 13861.786966
-24754.814577 22690.300331 14361.700356
20293.657720 9355.848448 25052.910742
20293.657720 8476.728149 24170.482395
20293.657720 9355.848448 25052.910742
20293.657720 10413.392164 26106.305142
2659.601797 4820.183073 -23831.742366
3291.598333 4695.329420 -24338.885249
2659.601797 4820.183073 -23831.742366
1857.239635 5004.727094 -23213.924225
11441.382723 -19829.375765 -14377.704071
10720.654489 -19108.647531 -14377.704071
11441.382723 -19829.375765 -14377.704071
12178.495649 -20566.488691 -14377.704071
-17811.193833 -3385.060393 18368.034788
-18623.616160 -2572.638037 18368.034817
-17811.193833 -3385.060393 18368.034788
-17049.849625 -4146.404629 18368.034761
10373.844674 -13849.610584 -9337.125030
9404.800053 -13822.991239 -8341.461065
10373.844674 -13849.610584 -9337.125030
11265.260602 -13837.708386 -10216.638760
22289.600578 24989.417511 28019.307104
21596.215409 25682.802680 28019.307104
22289.600578 24989.417511 28019.307104
23139.325068 24139.693021 28019.307104
9459.596151 7630.339532 -28928.804508
8735.640860 8354.294823 -28928.804508
9459.596151 7630.339532 -28928.804508
9832.040579 7266.659905 -28928.804508
3813.340327 25638.080578 -1012.502373
4677.836387 25638.080578 -1876.998434
3813.340327 25638.080578 -1012.502373
2958.876855 25638.080578 -157.182723
7093.196746 17441.141893 14804.168625
7714.557247 17441.141893 15421.255656
7093.196746 17441.141893 14804.168625
6360.478600 17441.141893 14071.505543
-25326.594800 8895.540856 6104.833733
-26298.996556 8895.540856 5134.897547
-25326.594800 8895.540856 6104.833733
-25446.032424 9656.700224 5463.111988
-18579.523519 -9700.145586 19478.460267
-18301.029882 -9700.145586 19756.953903
-18579.523519 -9700.145586 19478.460267
-18295.937155 -8994.525642 19056.426686
-18579.523519 -9700.145586 19478.460267
-18888.775005 -10327.681916 18541.672451
12682.061302 -8920.638880 12956.366542
11804.627937 -8539.474898 12460.097160
12682.061302 -8920.638880 12956.366542
13119.227134 -9106.608403 13207.562851
-18919.404786 -12192.731636 -18902.880123
-19613.227491 -11575.535717 -18826.253336
-18919.404786 -12192.731636 -18902.880123
-18442.701268 -12640.571459 -18931.743818
-17506.761510 -11476.528402 24009.524945
-17126.388498 -11476.528260 24376.540234
-17506.761510 -11476.528402 24009.524945
-17727.452166 -11476.528485 23796.584378
19563.807452 27864.034459 -28887.153397
20210.335265 27742.353253 -29412.000005
20210.335265 27742.353253 29411.999983
20346.445746 27716.736277 29301.506490
19563.807452 27864.034459 -28887.153397
18743.830064 27964.849793 -28167.991344
5719.100052 767.955279 12119.001103
5686.413528 -158.506411 13012.776196
5719.100052 767.955279 12119.001103
5923.337107 1779.978794 11311.214643
23795.781235 19559.875167 3336.114372
22933.893879 19527.772733 4165.898091
23795.781235 19559.875167 3336.114372
24709.327848 19473.802321 2336.494913
-25967.827109 -11805.466592 -23921.739200
-24833.028920 -11190.182422 -24441.253219
-25967.827109 -11805.466592 -23921.739200
-25372.204278 -11808.328100 -23328.977877
-25967.827109 -11805.466592 -23921.739200
-26200.939960 -12090.608369 -23973.768127
7547.293135 848.608246 -24787.856907
6855.380736 416.890742 -25048.051801
7547.293135 848.608246 -24787.856907
8154.623048 1257.778602 -24589.697349
-28090.040230 -24680.716542 6906.953463
-28640.336578 -25728.987102 7404.928184
-28090.040230 -24680.716542 6906.953463
-27384.027338 -23809.433329 6741.682632
-8277.021637 -3420.122135 22480.558703
-8001.418201 -3968.196257 23304.236260
-8277.021637 -3420.122135 22480.558703
-8444.742428 -2679.770457 21572.486234
-26154.646299 23401.414352 15050.418057
-26835.422707 23747.908284 15384.700532
-26154.646299 23401.414352 15050.418057
-25499.244807 23067.632325 14728.798592
-23939.660949 -21077.275618 25495.452869
-22506.794486 -21034.620025 26885.663739
-23939.660949 -21077.275618 25495.452869
-24709.552583 -20616.301348 24264.586965
-4784.660765 20153.512038 -27979.340966
-3951.894864 19320.746137 -27979.340966
-4784.660765 20153.512038 -27979.340966
-5553.503129 20922.354402 -27979.340966
-27291.370947 16965.369589 -27430.657551
-27040.630385 17216.110150 -27430.657551
-27291.370947 16965.369589 -27430.657551
-28327.056334 15929.684201 -27430.657551
-15333.682645 -7068.496501 15837.204177
-14424.195587 -6352.230483 15643.983138
-15333.682645 -7068.496501 15837.204177
-15810.106617 -7470.983848 15911.140803
-24717.618994 5869.372470 -23419.135134
-24481.931453 5266.014911 -22580.090035
-24717.618994 5869.372470 -23419.135134
-24890.253859 6511.764260 -24234.161790
-2093.337105 -17845.012178 19625.939732
-904.487788 -18025.862814 20633.938413
-2093.337105 -17845.012178 19625.939732
-2998.598363 -17978.302943 18587.387708
4718.872750 -6473.891666 12360.634047
4718.872750 -5979.503631 12855.023001
4718.872750 -6473.891666 12360.634047
4718.872750 -7341.210161 11504.351559
-17686.128990 -24753.094149 11790.730975
-17060.879720 -24621.388801 11297.187053
-17686.128990 -24753.094149 11790.730975
-18704.718261 -25122.267546 12440.146850
1030.257111 23799.453504 -17178.743828
1627.136166 23053.639057 -18521.437330
1030.257111 23799.453504 -17178.743828
366.689515 24386.682320 -15927.947415
8440.929088 -17689.005161 -3362.413619
8309.210040 -18629.251632 -2290.448101
8440.929088 -17689.005161 -3362.413619
7677.058693 -18452.875556 -3362.413619
-5918.976002 -24813.947984 22246.531589
-7025.125945 -24802.090458 21152.239171
-5918.976002 -24813.947984 22246.531589
-5149.566684 -25054.493462 22775.395499
-13949.033074 -2770.278685 11745.619554
-13217.991644 -2770.278685 11014.578124
-13949.033074 -2770.278685 11745.619554
-15062.930520 -2770.278685 12859.517000
7631.299541 25234.860746 21800.289658
8298.547121 25985.780880 23218.457371
7631.299541 25234.860746 21800.289658
7200.955775 25024.353336 21159.438482
1386.108555 -5098.904656 20186.186142
1482.293365 -5827.802377 20979.717847
1386.108555 -5098.904656 20186.186142
1355.025306 -4385.806548 19505.106435
-21794.630771 8632.162873 28355.252445
-22527.126552 9350.496384 28355.252445
-21794.630771 8632.162873 28355.252445
-21037.233639 7961.245311 28355.252445
-23768.844128 -21853.950425 27052.759947
-24243.173477 -21072.070879 27360.310144
-23768.844128 -21853.950425 27052.759947
-23314.642588 -22961.301047 26399.610864
2236.418300 -18700.850843 4389.190953
2494.367974 -19224.835949 4655.226385
2236.418300 -18700.850843 4389.190953
2093.937029 -18315.435101 4146.256482
-11816.519763 -4004.669278 26538.530480
-11298.064646 -3194.902521 26829.842120
-11816.519763 -4004.669278 26538.530480
-12488.608682 -4661.865631 26553.423046
-27273.889357 -5782.501219 -1345.854490
-27273.889357 -4974.514352 -537.868696
-27273.889357 -5782.501219 -1345.854490
-27273.889357 -6639.911648 -2200.218538
-19825.555123 -28344.334188 23459.370498
-21405.365379 -27270.729851 22953.164580
-19825.555123 -28344.334188 23459.370498
-18481.915799 -29412.000006 23763.457615
-18481.915799 29411.999983 23763.457615
-18440.849157 29379.368135 23772.751654
-24327.904567 24091.901086 -23267.614626
-23613.608388 24806.175073 -23267.614626
-24327.904567 24091.901086 -23267.614626
-25390.791438 23029.047239 -23267.614626
-28549.917046 -14739.643891 28150.222107
-28013.958838 -15345.953223 27007.954566
-28549.917046 -14739.643891 28150.222107
-28869.429576 -14039.182438 29170.196090
4857.092687 -25658.306582 14651.735161
4857.092687 -26036.832335 14272.315821
4857.092687 -25658.306582 14651.735161
4857.092687 -25208.632472 15100.355033
-16150.178041 -22715.698276 26240.824048
-16757.074258 -22733.238932 26830.179609
-16150.178041 -22715.698276 26240.824048
-15449.168069 -22717.227428 25538.284923
872.029150 20274.280926 12748.234147
309.679037 20082.918367 13501.946819
872.029150 20274.280926 12748.234147
1658.884913 20395.664102 11839.995207
24865.987952 -5547.467766 1266.205140
24469.339337 -6172.837557 244.186734
24865.987952 -5547.467766 1266.205140
25096.626647 -5061.265682 1983.045918
9867.244537 23081.204078 27899.603656
10258.109043 23292.152605 28079.519634
9867.244537 23081.204078 27899.603656
8555.779736 22438.959900 27230.383032
-28390.498328 27620.114915 -28673.155038
-27995.200198 26972.185053 -27629.927046
-28390.498328 27620.114915 -28673.155038
-28418.705041 28297.044602 -29378.291437
-28390.498328 27620.114915 -28673.155038
-28969.104514 27804.067244 -28278.501181
8332.053596 -7444.548236 16363.313120
8917.387683 -7117.276328 17275.919116
8332.053596 -7444.548236 16363.313120
7761.920779 -8169.638959 17658.536660
8332.053596 -7444.548236 16363.313120
9198.757592 -6967.041500 15019.102387
8332.053596 -7444.548236 16363.313120
7746.701963 -7772.460869 15450.048855
108.499592 4655.893291 -22664.063319
108.499592 5043.394329 -23047.679196
108.499592 4655.893291 -22664.063319
108.499592 4217.981024 -22232.122913
8948.898684 4978.562683 22404.094307
8812.272291 4841.936290 22404.094307
8948.898684 4978.562683 22404.094307
8948.898684 4154.074850 23228.592698
8948.898684 4978.562683 22404.094307
8495.687205 5414.947704 21514.497806
12945.071922 -10771.564072 5591.886141
12945.071922 -10384.611979 5203.056150
12945.071922 -10771.564072 5591.886141
12945.071922 -11620.766310 6466.648782
9486.588754 24613.656165 14204.585188
9094.513705 25226.029856 13200.135981
9486.588754 24613.656165 14204.585188
[...]
CELL_DATA 17941
VECTORS Burgers FLOAT
0.000000 0.000000 0.000000
0.707107 -0.707107 -0.000000
-0.707107 0.707107 0.000000
-0.707107 0.707107 -0.000000
0.707107 -0.707107 0.000000
0.000000 -0.707107 0.707107
0.000000 0.707107 -0.707107
0.707107 -0.000000 -0.707107
-0.707107 0.000000 0.707107
0.707107 0.707107 0.000000
-0.707107 -0.707107 -0.000000
-0.707107 -0.707107 0.000000
0.707107 0.707107 -0.000000
0.707107 0.707107 -0.000000
-0.707107 -0.707107 0.000000
-0.707107 -0.707107 0.000000
0.707107 0.707107 -0.000000
0.707107 0.707107 0.000000
-0.707107 -0.707107 -0.000000
-0.707107 0.000000 -0.707107
0.707107 0.000000 0.707107
-0.707107 0.000000 0.707107
0.707107 -0.000000 -0.707107
0.707107 0.000000 -0.707107
-0.707107 -0.000000 0.707107
0.707107 0.000000 -0.707107
-0.707107 -0.707107 -0.000000
-0.000000 0.707107 0.707107
-0.707107 0.000000 -0.707107
0.707107 -0.000000 0.707107
-0.707107 0.707107 0.000000
0.707107 -0.707107 -0.000000
-0.707107 0.000000 0.707107
0.707107 -0.000000 -0.707107
-0.707107 0.707107 0.000000
-0.707107 0.707107 0.000000
0.707107 -0.707107 -0.000000
-0.000000 0.707107 -0.707107
0.000000 -0.707107 0.707107
0.707107 0.000000 -0.707107
-0.707107 -0.000000 0.707107
-0.707107 -0.000000 0.707107
0.000000 -0.707107 -0.707107
0.707107 0.707107 -0.000000
0.707107 -0.000000 0.707107
-0.707107 0.000000 -0.707107
-0.707107 0.000000 -0.707107
0.707107 -0.000000 0.707107
0.707107 0.707107 0.000000
-0.707107 -0.707107 -0.000000
0.707107 -0.707107 0.000000
-0.707107 0.707107 -0.000000
0.000000 0.707107 -0.707107
-0.000000 -0.707107 0.707107
0.707107 0.707107 0.000000
-0.707107 -0.707107 -0.000000
0.707107 -0.707107 -0.000000
-0.707107 0.707107 0.000000
-0.707107 -0.707107 0.000000
0.707107 0.707107 -0.000000
-0.707107 -0.707107 0.000000
0.707107 0.707107 -0.000000
0.000000 0.707107 0.707107
-0.000000 -0.707107 -0.707107
-0.000000 0.707107 -0.707107
-0.000000 -0.707107 0.707107
-0.707107 0.000000 0.707107
0.707107 -0.000000 -0.707107
-0.707107 0.000000 0.707107
0.707107 -0.000000 -0.707107
0.707107 -0.707107 0.000000
-0.707107 0.707107 0.000000
-0.000000 -0.707107 -0.707107
0.000000 0.707107 0.707107
-0.707107 0.000000 -0.707107
0.707107 -0.000000 0.707107
0.000000 -0.707107 -0.707107
-0.000000 0.707107 0.707107
0.707107 0.707107 0.000000
-0.707107 -0.707107 -0.000000
-0.707107 -0.707107 0.000000
0.707107 0.707107 -0.000000
0.000000 -0.707107 -0.707107
-0.000000 0.707107 0.707107
0.000000 0.707107 -0.707107
-0.000000 -0.707107 0.707107
-0.000000 -0.707107 -0.707107
0.000000 0.707107 0.707107
0.000000 0.707107 -0.707107
-0.000000 -0.707107 0.707107
-0.707107 -0.000000 -0.707107
0.707107 0.000000 0.707107
0.707107 0.000000 0.707107
0.707107 -0.707107 0.000000
-0.707107 0.707107 -0.000000
0.000000 -0.707107 -0.707107
-0.000000 0.707107 0.707107
0.000000 -0.707107 0.707107
-0.000000 0.707107 -0.707107
0.707107 0.707107 0.000000
-0.707107 -0.707107 -0.000000
0.707107 0.000000 -0.707107
-0.707107 -0.000000 0.707107
-0.000000 0.707107 0.707107
0.000000 -0.707107 -0.707107
0.707107 -0.000000 0.707107
-0.707107 0.000000 -0.707107
0.707107 -0.000000 0.707107
-0.707107 -0.707107 0.000000
-0.000000 0.707107 -0.707107
0.000000 -0.707107 -0.707107
0.000000 0.707107 -0.707107
-0.000000 -0.707107 0.707107
-0.000000 0.707107 0.707107
0.000000 0.707107 0.707107
-0.000000 -0.707107 -0.707107
-0.707107 0.707107 0.000000
-0.000000 -0.707107 -0.707107
0.707107 0.000000 0.707107
0.000000 0.707107 0.707107
-0.000000 -0.707107 -0.707107
0.707107 0.707107 0.000000
-0.707107 -0.707107 -0.000000
0.707107 -0.707107 0.000000
-0.707107 0.707107 -0.000000
0.707107 -0.707107 -0.000000
-0.707107 0.000000 -0.707107
0.000000 0.707107 0.707107
0.707107 0.000000 -0.707107
-0.707107 -0.000000 0.707107
0.000000 -0.707107 0.707107
-0.000000 0.707107 -0.707107
-0.000000 0.707107 -0.707107
0.000000 -0.707107 0.707107
-0.707107 0.000000 -0.707107
-0.000000 0.707107 0.707107
0.707107 -0.707107 0.000000
0.000000 0.707107 0.707107
0.000000 -0.707107 -0.707107
-0.000000 -0.707107 0.707107
0.000000 0.707107 -0.707107
0.707107 -0.707107 -0.000000
-0.707107 0.707107 0.000000
-0.707107 0.000000 0.707107
0.707107 -0.707107 -0.000000
-0.707107 0.707107 0.000000
0.707107 -0.000000 -0.707107
-0.707107 0.000000 0.707107
0.707107 -0.707107 0.000000
-0.707107 0.707107 -0.000000
0.707107 -0.000000 0.707107
-0.707107 -0.000000 -0.707107
0.000000 -0.707107 -0.707107
-0.000000 0.707107 0.707107
0.707107 -0.707107 0.000000
-0.707107 -0.000000 0.707107
-0.000000 0.707107 -0.707107
0.000000 0.707107 -0.707107
-0.000000 -0.707107 0.707107
-0.707107 -0.000000 -0.707107
0.707107 0.000000 0.707107
-0.000000 -0.707107 -0.707107
0.707107 -0.000000 0.707107
0.707107 -0.000000 0.707107
-0.707107 0.707107 0.000000
0.000000 -0.707107 -0.707107
-0.707107 0.707107 0.000000
0.707107 0.000000 0.707107
0.000000 -0.707107 0.707107
-0.707107 0.707107 0.000000
0.707107 0.000000 -0.707107
-0.707107 -0.707107 0.000000
0.707107 0.707107 -0.000000
-0.707107 -0.000000 -0.707107
0.707107 -0.000000 0.707107
0.000000 0.707107 0.707107
-0.000000 -0.707107 -0.707107
0.000000 -0.707107 -0.707107
-0.000000 0.707107 0.707107
0.000000 0.707107 0.707107
-0.000000 -0.707107 -0.707107
0.707107 0.000000 -0.707107
-0.707107 -0.000000 0.707107
-0.000000 -0.707107 -0.707107
0.000000 0.707107 0.707107
-0.707107 -0.000000 0.707107
0.707107 0.000000 -0.707107
0.707107 -0.707107 -0.000000
-0.707107 0.707107 0.000000
0.707107 0.000000 0.707107
-0.707107 -0.000000 -0.707107
0.707107 0.000000 -0.707107
0.707107 -0.707107 -0.000000
-0.707107 0.707107 0.000000
-0.707107 -0.000000 0.707107
0.000000 0.707107 -0.707107
-0.000000 -0.707107 0.707107
0.707107 0.000000 -0.707107
-0.707107 -0.000000 0.707107
0.000000 -0.707107 0.707107
-0.000000 0.707107 -0.707107
-0.707107 -0.000000 0.707107
0.707107 0.000000 -0.707107
0.707107 0.000000 -0.707107
-0.707107 -0.000000 0.707107
0.707107 -0.000000 -0.707107
-0.707107 0.000000 0.707107
-0.707107 -0.707107 0.000000
0.707107 0.707107 0.000000
0.707107 -0.707107 0.000000
0.000000 0.707107 0.707107
-0.707107 -0.000000 -0.707107
-0.707107 0.000000 0.707107
0.707107 -0.000000 -0.707107
-0.707107 -0.000000 0.707107
0.707107 0.000000 -0.707107
-0.707107 -0.707107 -0.000000
0.707107 0.707107 0.000000
-0.707107 -0.000000 -0.707107
0.707107 0.000000 0.707107
0.000000 0.707107 0.707107
-0.000000 -0.707107 -0.707107
0.000000 -0.707107 0.707107
-0.000000 0.707107 -0.707107
-0.000000 0.707107 -0.707107
0.000000 -0.707107 0.707107
0.000000 0.707107 0.707107
-0.000000 -0.707107 -0.707107
0.707107 0.000000 0.707107
-0.707107 -0.707107 0.000000
-0.000000 0.707107 -0.707107
-0.707107 -0.707107 -0.000000
0.707107 0.707107 -0.000000
-0.707107 -0.000000 0.707107
0.707107 0.000000 -0.707107
0.000000 -0.707107 0.707107
0.000000 -0.707107 0.707107
-0.000000 0.707107 -0.707107
0.707107 0.707107 -0.000000
-0.707107 -0.707107 -0.000000
0.707107 0.000000 -0.707107
-0.707107 -0.707107 0.000000
0.000000 0.707107 0.707107
0.707107 0.000000 0.707107
-0.707107 -0.000000 -0.707107
0.707107 -0.000000 0.707107
-0.707107 0.000000 -0.707107
-0.707107 -0.000000 0.707107
0.707107 -0.000000 -0.707107
0.707107 -0.000000 -0.707107
-0.707107 0.000000 0.707107
0.707107 -0.707107 -0.000000
-0.707107 0.707107 -0.000000
0.707107 -0.707107 0.000000
-0.707107 0.707107 0.000000
-0.000000 -1.414214 -0.000000
0.000000 1.414214 0.000000
-0.707107 0.000000 0.707107
0.707107 -0.000000 -0.707107
0.707107 0.000000 -0.707107
-0.707107 -0.000000 0.707107
-0.707107 0.000000 -0.707107
0.707107 0.000000 -0.707107
-0.707107 -0.000000 0.707107
0.707107 -0.707107 -0.000000
-0.707107 0.707107 0.000000
0.707107 0.707107 -0.000000
-0.707107 -0.707107 0.000000
-0.707107 0.707107 -0.000000
0.707107 -0.707107 0.000000
0.707107 0.707107 0.000000
-0.707107 -0.707107 -0.000000
0.000000 -0.707107 0.707107
-0.707107 0.707107 0.000000
0.707107 -0.000000 -0.707107
-0.707107 0.707107 -0.000000
-0.000000 -0.707107 0.707107
0.707107 0.000000 -0.707107
0.707107 0.000000 -0.707107
-0.707107 -0.000000 0.707107
0.000000 -0.707107 -0.707107
-0.000000 0.707107 0.707107
0.000000 0.707107 0.707107
0.000000 0.707107 0.707107
0.707107 -0.000000 -0.707107
-0.707107 -0.707107 0.000000
-0.707107 -0.707107 0.000000
-0.000000 0.707107 0.707107
-0.707107 -0.000000 0.707107
0.707107 0.000000 -0.707107
0.000000 -0.707107 -0.707107
-0.707107 0.000000 -0.707107
0.707107 -0.000000 0.707107
-0.000000 -0.707107 0.707107
0.707107 0.000000 -0.707107
-0.707107 0.707107 -0.000000
0.707107 -0.000000 0.707107
-0.707107 0.000000 -0.707107
-0.000000 -0.707107 0.707107
0.000000 0.707107 -0.707107
0.707107 0.707107 -0.000000
-0.707107 -0.707107 0.000000
0.707107 -0.707107 0.000000
-0.707107 0.707107 0.000000
0.707107 0.707107 0.000000
-0.707107 -0.707107 -0.000000
-0.707107 0.000000 -0.707107
0.707107 -0.000000 0.707107
0.000000 -0.707107 -0.707107
-0.000000 0.707107 0.707107
0.707107 -0.000000 0.707107
-0.707107 0.000000 -0.707107
0.707107 0.000000 0.707107
0.000000 0.707107 -0.707107
-0.707107 -0.707107 0.000000
-0.707107 -0.000000 -0.707107
0.707107 0.000000 0.707107
-1.414214 0.707107 0.707107
0.707107 -0.000000 0.707107
0.707107 0.000000 -0.707107
0.000000 -0.707107 -0.707107
-0.707107 -0.000000 -0.707107
0.707107 0.000000 0.707107
-0.707107 0.000000 0.707107
0.707107 -0.000000 -0.707107
0.707107 0.707107 0.000000
-0.707107 -0.707107 -0.000000
0.707107 0.707107 0.000000
-0.707107 -0.707107 -0.000000
-0.707107 -0.707107 0.000000
0.707107 0.707107 -0.000000
-0.000000 -0.707107 -0.707107
0.000000 0.707107 0.707107
-0.000000 -0.707107 -0.707107
0.000000 0.707107 0.707107
0.707107 -0.000000 -0.707107
-0.707107 0.000000 0.707107
-0.707107 -0.000000 0.707107
0.707107 0.000000 -0.707107
-0.707107 -0.000000 -0.707107
0.707107 0.000000 0.707107
0.707107 0.000000 0.707107
-0.707107 -0.000000 -0.707107
0.707107 -0.000000 0.707107
-0.707107 0.707107 -0.000000
0.000000 -0.707107 -0.707107
0.707107 0.707107 0.000000
-0.707107 0.000000 0.707107
0.000000 -0.707107 -0.707107
0.000000 -0.707107 0.707107
-0.000000 0.707107 -0.707107
0.000000 0.707107 -0.707107
-0.000000 -0.707107 0.707107
-0.707107 -0.000000 0.707107
-0.707107 1.414214 -0.707107
0.000000 -0.707107 -0.707107
1.414214 -0.707107 0.707107
0.707107 0.000000 -0.707107
-0.707107 -0.000000 0.707107
-0.707107 0.707107 -0.000000
0.707107 -0.707107 0.000000
0.707107 -0.707107 -0.000000
0.707107 -0.000000 0.707107
-0.707107 0.000000 -0.707107
-0.707107 -0.707107 -0.000000
0.707107 0.000000 -0.707107
0.000000 0.707107 0.707107
0.707107 0.707107 -0.000000
-0.707107 -0.707107 0.000000
-0.707107 0.000000 0.707107
0.707107 -0.000000 -0.707107
0.707107 0.000000 -0.707107
-0.707107 -0.000000 0.707107
-0.000000 -0.707107 -0.707107
0.000000 0.707107 0.707107
-0.707107 -0.000000 -0.707107
0.707107 0.000000 0.707107
0.000000 0.707107 0.707107
-0.000000 -0.707107 -0.707107
0.707107 -0.707107 0.000000
-0.707107 0.707107 -0.000000
-0.707107 0.707107 -0.000000
0.707107 -0.707107 0.000000
0.707107 -0.707107 0.000000
-0.707107 0.707107 0.000000
0.707107 0.707107 0.000000
-0.000000 -0.707107 0.707107
-0.707107 -0.000000 -0.707107
0.707107 -0.707107 -0.000000
-0.707107 0.707107 0.000000
-0.707107 -0.707107 0.000000
0.707107 0.707107 -0.000000
0.707107 0.000000 0.707107
-0.707107 -0.000000 -0.707107
-0.707107 0.707107 0.000000
0.707107 -0.707107 -0.000000
-0.000000 -0.707107 -0.707107
-0.707107 0.707107 0.000000
0.707107 -0.000000 0.707107
-0.707107 0.000000 0.707107
0.707107 -0.000000 -0.707107
-0.707107 0.707107 0.000000
0.707107 -0.707107 -0.000000
0.707107 -0.707107 -0.000000
-0.707107 0.707107 0.000000
-0.000000 0.707107 -0.707107
0.000000 -0.707107 0.707107
-0.000000 -0.707107 -0.707107
-0.000000 0.707107 0.707107
-0.000000 0.707107 0.707107
0.000000 -0.707107 -0.707107
0.000000 0.707107 0.707107
-0.000000 -0.707107 -0.707107
-0.707107 -0.707107 0.000000
0.707107 0.707107 -0.000000
-0.707107 0.707107 -0.000000
0.707107 -0.707107 0.000000
0.707107 -0.707107 -0.000000
-0.707107 0.707107 0.000000
-0.707107 0.707107 -0.000000
-0.707107 -0.000000 0.707107
0.707107 0.000000 -0.707107
-0.000000 -0.707107 -0.707107
0.000000 0.707107 0.707107
-0.707107 0.707107 -0.000000
0.707107 -0.707107 0.000000
0.000000 -0.707107 -0.707107
-0.000000 0.707107 0.707107
-0.707107 -0.707107 0.000000
0.707107 0.707107 -0.000000
0.000000 -0.707107 0.707107
-0.000000 0.707107 -0.707107
-0.707107 -0.707107 -0.000000
0.707107 0.707107 0.000000
-0.707107 -0.000000 0.707107
0.707107 0.000000 -0.707107
0.707107 0.000000 0.707107
-0.707107 -0.000000 -0.707107
-0.000000 0.707107 0.707107
0.000000 -0.707107 -0.707107
-0.707107 -0.000000 -0.707107
0.707107 0.707107 -0.000000
-0.707107 0.000000 0.707107
0.707107 -0.000000 -0.707107
0.000000 0.707107 -0.707107
-0.000000 -0.707107 0.707107
-0.707107 -0.000000 -0.707107
0.707107 -0.000000 0.707107
0.707107 -0.000000 0.707107
-0.707107 0.707107 -0.000000
-0.000000 -0.707107 -0.707107
0.707107 0.000000 0.707107
-0.707107 0.000000 -0.707107
0.707107 -0.000000 0.707107
-0.000000 0.707107 0.707107
0.000000 -0.707107 -0.707107
0.000000 0.707107 0.707107
-0.000000 -0.707107 -0.707107
-0.707107 0.000000 -0.707107
0.707107 0.707107 0.000000
0.000000 -0.707107 0.707107
0.000000 -0.707107 0.707107
0.000000 0.707107 -0.707107
0.000000 0.707107 0.707107
-0.000000 -0.707107 -0.707107
0.000000 -0.707107 0.707107
-0.707107 -0.000000 -0.707107
0.707107 0.707107 0.000000
0.707107 -0.000000 -0.707107
-0.707107 0.000000 0.707107
-0.000000 0.707107 0.707107
0.000000 -0.707107 -0.707107
0.000000 -0.707107 -0.707107
-0.000000 0.707107 0.707107
0.707107 0.000000 0.707107
-0.707107 -0.000000 -0.707107
0.707107 0.000000 -0.707107
-0.707107 -0.000000 0.707107
0.000000 0.707107 -0.707107
-0.000000 -0.707107 0.707107
-0.707107 -0.000000 -0.707107
0.707107 0.000000 0.707107
-0.707107 0.000000 0.707107
0.707107 -0.000000 -0.707107
0.707107 -0.707107 0.000000
-0.707107 0.707107 -0.000000
-0.707107 -0.000000 0.707107
0.707107 0.707107 -0.000000
-0.000000 -0.707107 -0.707107
-0.707107 -0.707107 -0.000000
0.707107 0.707107 0.000000
0.707107 0.000000 -0.707107
-0.000000 -0.707107 0.707107
-0.707107 0.707107 0.000000
0.000000 0.000000 -1.414214
-0.000000 -0.000000 1.414214
0.000000 0.707107 -0.707107
-0.000000 -0.707107 0.707107
0.707107 0.707107 -0.000000
-0.707107 -0.707107 0.000000
0.000000 0.707107 -0.707107
-0.000000 -0.707107 0.707107
-0.000000 0.707107 -0.707107
0.000000 -0.707107 0.707107
-0.707107 0.707107 0.000000
0.707107 -0.707107 -0.000000
0.000000 -0.707107 0.707107
-0.000000 0.707107 -0.707107
0.707107 0.000000 -0.707107
-0.707107 -0.000000 0.707107
0.000000 -0.707107 0.707107
-0.000000 0.707107 -0.707107
0.000000 0.707107 -0.707107
-0.000000 -0.707107 0.707107
0.707107 -0.000000 -0.707107
-0.707107 -0.000000 0.707107
-0.000000 -0.707107 -0.707107
0.000000 0.707107 0.707107
-0.000000 -0.707107 -0.707107
0.000000 0.707107 0.707107
-0.707107 0.000000 0.707107
0.707107 -0.000000 -0.707107
0.000000 -0.707107 -0.707107
-0.000000 0.707107 0.707107
-0.707107 0.707107 0.000000
0.707107 -0.707107 -0.000000
0.707107 0.000000 -0.707107
-0.707107 -0.000000 0.707107
0.707107 -0.000000 -0.707107
-0.707107 0.000000 0.707107
-0.707107 0.000000 -0.707107
0.707107 -0.000000 0.707107
0.000000 0.707107 0.707107
-0.000000 -0.707107 -0.707107
-0.707107 0.000000 -0.707107
0.707107 -0.000000 0.707107
0.707107 -0.707107 0.000000
-0.707107 0.707107 0.000000
0.707107 0.000000 -0.707107
-0.707107 -0.000000 0.707107
-0.000000 0.707107 -0.707107
0.000000 -0.707107 0.707107
-0.000000 0.707107 -0.707107
0.000000 -0.707107 0.707107
0.707107 -0.707107 -0.000000
-0.707107 0.707107 0.000000
-0.707107 -0.707107 -0.000000
0.707107 0.707107 0.000000
0.707107 -0.707107 -0.000000
-0.707107 0.707107 0.000000
-0.707107 0.000000 0.707107
0.707107 -0.000000 -0.707107
0.000000 -0.707107 0.707107
0.707107 0.707107 0.000000
-0.707107 0.000000 -0.707107
0.707107 0.000000 0.707107
-0.707107 -0.000000 -0.707107
-0.707107 -0.000000 0.707107
0.707107 0.000000 -0.707107
-0.707107 -0.000000 0.707107
0.707107 0.000000 -0.707107
-0.707107 -0.707107 0.000000
0.707107 -0.000000 -0.707107
-0.707107 0.000000 0.707107
-0.000000 0.707107 0.707107
0.000000 -0.707107 -0.707107
-0.707107 -0.000000 0.707107
0.707107 0.000000 -0.707107
0.707107 0.000000 -0.707107
0.707107 -0.707107 0.000000
-0.707107 0.707107 -0.000000
-0.000000 -0.707107 0.707107
0.000000 0.707107 -0.707107
-0.707107 0.707107 0.000000
0.707107 -0.000000 0.707107
0.000000 -0.707107 -0.707107
0.707107 -0.707107 0.000000
-0.707107 0.707107 -0.000000
-0.707107 -0.707107 -0.000000
0.707107 0.707107 0.000000
0.000000 -0.707107 -0.707107
-0.000000 0.707107 0.707107
0.707107 0.000000 0.707107
-0.707107 -0.000000 -0.707107
-0.707107 0.000000 0.707107
0.707107 -0.000000 -0.707107
-0.707107 0.707107 0.000000
0.707107 -0.707107 0.000000
0.707107 0.707107 0.000000
-0.707107 -0.707107 -0.000000
-0.707107 -0.707107 -0.000000
0.000000 0.707107 0.707107
0.000000 -0.707107 0.707107
-0.000000 0.707107 -0.707107
0.000000 -0.707107 0.707107
-0.000000 0.707107 -0.707107
0.707107 0.000000 0.707107
-0.707107 -0.000000 -0.707107
-0.707107 -0.000000 0.707107
0.000000 0.707107 -0.707107
-0.000000 -0.707107 0.707107
0.707107 0.707107 -0.000000
-0.707107 -0.707107 0.000000
0.000000 -0.707107 0.707107
-0.000000 0.707107 -0.707107
-0.000000 0.707107 -0.707107
0.000000 -0.707107 0.707107
0.707107 -0.000000 -0.707107
-0.000000 -0.707107 -0.707107
0.000000 0.707107 0.707107
-0.707107 0.707107 -0.000000
0.707107 -0.707107 0.000000
-0.707107 0.707107 0.000000
0.707107 -0.707107 -0.000000
-0.707107 0.000000 -0.707107
0.707107 -0.000000 0.707107
-0.000000 -0.707107 0.707107
0.000000 0.707107 -0.707107
0.707107 0.000000 -0.707107
-0.707107 -0.000000 0.707107
-0.707107 0.707107 0.000000
0.707107 -0.707107 -0.000000
0.707107 -0.707107 -0.000000
-0.707107 0.000000 0.707107
0.707107 -0.000000 -0.707107
-0.000000 -0.000000 -1.414214
0.000000 0.000000 1.414214
-0.000000 -0.707107 0.707107
0.000000 0.707107 -0.707107
0.707107 -0.000000 0.707107
-0.707107 0.000000 -0.707107
0.707107 0.707107 0.000000
-0.707107 -0.707107 -0.000000
0.000000 0.707107 0.707107
-0.000000 -0.707107 -0.707107
-0.707107 0.707107 0.000000
0.707107 -0.707107 -0.000000
-0.000000 -0.707107 0.707107
-0.000000 0.707107 -0.707107
-0.000000 1.414214 -0.000000
-0.000000 -0.707107 0.707107
0.000000 -0.707107 -0.707107
0.000000 0.707107 -0.707107
-0.000000 -0.707107 0.707107
-0.707107 -0.707107 0.000000
0.707107 0.707107 -0.000000
-0.707107 0.000000 -0.707107
0.707107 -0.000000 0.707107
-0.000000 -0.707107 -0.707107
0.000000 0.707107 0.707107
0.707107 -0.707107 0.000000
-0.707107 0.707107 -0.000000
0.000000 0.707107 0.707107
0.000000 -0.707107 -0.707107
-0.707107 -0.707107 0.000000
0.707107 0.707107 -0.000000
-0.707107 0.000000 -0.707107
0.707107 -0.000000 0.707107
0.000000 0.707107 0.707107
-0.000000 -0.707107 -0.707107
0.000000 0.707107 0.707107
-0.000000 -0.707107 -0.707107
0.707107 0.000000 -0.707107
-0.707107 -0.000000 0.707107
-0.000000 -0.707107 0.707107
-0.000000 0.707107 -0.707107
0.000000 -0.707107 -0.707107
0.000000 0.707107 0.707107
-0.707107 -0.000000 -0.707107
0.707107 -0.000000 0.707107
-0.707107 -0.000000 -0.707107
0.707107 0.000000 0.707107
0.000000 -0.707107 0.707107
-0.000000 0.707107 -0.707107
-0.000000 -0.707107 -0.707107
0.000000 0.707107 0.707107
0.707107 0.000000 0.707107
-0.000000 -0.707107 -0.707107
-0.707107 0.707107 0.000000
0.707107 0.000000 0.707107
-0.707107 -0.000000 -0.707107
-0.707107 0.707107 -0.000000
0.707107 -0.707107 0.000000
0.000000 0.707107 -0.707107
-0.000000 -0.707107 0.707107
-0.707107 0.707107 -0.000000
0.707107 -0.707107 0.000000
0.707107 0.707107 0.000000
0.707107 0.707107 0.000000
-0.707107 -0.707107 -0.000000
-0.000000 -0.707107 -0.707107
-0.707107 0.707107 -0.000000
0.707107 0.000000 0.707107
-0.707107 0.707107 0.000000
0.707107 -0.000000 0.707107
0.000000 -0.707107 -0.707107
0.000000 0.707107 0.707107
-0.000000 -0.707107 -0.707107
0.000000 -0.707107 0.707107
-0.000000 0.707107 -0.707107